 +-------------------------------------------------+
 |                                                 |
 |      CCC   AA    SSS  TTTTT  EEEEE  PPPP        |
 |     C     A  A  S       T    E      P   P       |
 |     C     AAAA   SS     T    EEE    PPPP        |
 |     C     A  A     S    T    E      P           |
 |      CCC  A  A  SSS     T    EEEEE  P           |
 |                                                 |
 +-------------------------------------------------+
 |                                                 |
 | Welcome to Academic Release CASTEP version 20.11|          
 | Ab Initio Total Energy Program                  |
 |                                                 |
 | Authors:                                        |
 | M. Segall, M. Probert, C. Pickard, P. Hasnip,   |
 | S. Clark, K. Refson, J. R. Yates, M. Payne      |
 |                                                 |
 | Contributors:                                   |
 | P. Lindan, P. Haynes, J. White, V. Milman,      |
 | N. Govind, M. Gibson, P. Tulip, V. Cocula,      |
 | B. Montanari, D. Quigley, M. Glover,            |
 | L. Bernasconi, A. Perlov, M. Plummer,           |
 | E. McNellis, J. Meyer, J. Gale, D. Jochym       |
 | J. Aarons, B. Walker, R. Gillen, D. Jones       |
 | T. Green, I. J. Bush, C. J. Armstrong,          |
 | E. J. Higgins, E. L. Brown, M. S. McFly,        |
 | J. Wilkins, B-C. Shih, P. J. P. Byrne,          |
 | R. J. Maurer, J. C. Womack, J. Dziedzic,        |
 | J. R. Kermode, A. Bartok-Partay                 |
 |                                                 |
 | Copyright (c) 2000 - 2020                       |
 |                                                 |
 |     Distributed under license from Cambridge    |
 |     Enterprise for academic use only.           |
 |                                                 |
 | Please cite                                     |
 |                                                 |
 |     "First principles methods using CASTEP"     |
 |                                                 |
 |         Zeitschrift fuer Kristallographie       |
 |           220(5-6) pp. 567-570 (2005)           |
 |                                                 |
 | S. J. Clark, M. D. Segall, C. J. Pickard,       |
 | P. J. Hasnip, M. J. Probert, K. Refson,         |
 | M. C. Payne                                     |
 |                                                 |
 |       in all publications arising from          |
 |              your use of CASTEP                 |
 |                                                 |
 +-------------------------------------------------+
 |                                                 |
 |              http://www.castep.org              |
 |                                                 |
 +-------------------------------------------------+
 
 
 
 Compiled for linux_x86_64_ifort on Wed, 22 Sep 2021 16:00:02 +0100
 from code version e772bf432+  HEAD  Sat Apr 3 17:41:32 2021 +0100
 Compiler: Intel Fortran 19.1.3.304; Optimisation: fast
 MATHLIBS: Intel MKL(2020.0.4) (LAPACK version 3.8.0)
 FFT Lib : mkl
 Fundamental constants values: CODATA 2014
 
 Run started: Tue, 11 Oct 2022 15:52:58 +0100
 
 Atomic calculation performed for Al: 1s2 2s2 2p6 3s2 3p1
 
 Converged in 52 iterations to an ae energy of -6606.982 eV
 
   ============================================================                
   | Pseudopotential Report - Date of generation 11-10-2022   |                
   ------------------------------------------------------------                
   | Element: Al Ionic charge:  3.00 Level of theory: RPBE    |                
   | Atomic Solver: Koelling-Harmon                           |                
   |                                                          |                
   |               Reference Electronic Structure             |                
   |         Orbital         Occupation         Energy        |                
   |            3s              2.000           -0.284        |                
   |            3p              1.000           -0.100        |                
   |                                                          |                
   |                 Pseudopotential Definition               |                
   |        Beta     l      e      Rc     scheme   norm       |                
   |          1      0   -0.284   2.192     qc      0         |                
   |          2      0    0.250   2.192     qc      0         |                
   |          3      1   -0.100   2.192     qc      0         |                
   |          4      1    0.250   2.192     qc      0         |                
   |          5      2    0.000   2.000     qc      0         |                
   |          6      2    0.250   2.000     qc      0         |                
   |         loc     3    0.000   2.192     pn      0         |                
   |                                                          |                
   | Augmentation charge Rinner = 1.398                       |                
   | Partial core correction Rc = 1.398                       |                
   ------------------------------------------------------------                
   | "3|2.2|2.2|1.4|4|5|5|30:31:32U2U2"                       |                
   ------------------------------------------------------------                
   |      Author: Chris J. Pickard, Cambridge University      |                
   ============================================================                
 
 Atomic calculation performed for Ni: 1s2 2s2 2p6 3s2 3p6 3d8 4s2
 
 Converged in 109 iterations to an ae energy of -41381.414 eV
 
   ============================================================                
   | Pseudopotential Report - Date of generation 11-10-2022   |                
   ------------------------------------------------------------                
   | Element: Ni Ionic charge: 10.00 Level of theory: RPBE    |                
   | Atomic Solver: Koelling-Harmon                           |                
   |                                                          |                
   |               Reference Electronic Structure             |                
   |         Orbital         Occupation         Energy        |                
   |            3d              8.000           -0.324        |                
   |            4s              2.000           -0.204        |                
   |                                                          |                
   |                 Pseudopotential Definition               |                
   |        Beta     l      e      Rc     scheme   norm       |                
   |          1      0   -0.204   2.401     qc      0         |                
   |          2      0    0.250   2.401     qc      0         |                
   |          3      1    0.000   2.401     qc      0         |                
   |          4      1    0.250   2.401     qc      0         |                
   |          5      2   -0.324   1.999     qc      0         |                
   |          6      2    0.250   1.999     qc      0         |                
   |         loc     3    0.000   2.401     pn      0         |                
   |                                                          |                
   | Augmentation charge Rinner = 1.001                       |                
   | Partial core correction Rc = 1.001                       |                
   ------------------------------------------------------------                
   | "3|2.4|2.4|1.0|8|9|10|40:41:32U2U2(qc=5.5)"              |                
   ------------------------------------------------------------                
   |      Author: Chris J. Pickard, Cambridge University      |                
   ============================================================                
 
 Pseudo atomic calculation performed for Al 3s2 3p1
 
 Converged in 13 iterations to a total energy of -107.6592 eV
 
 Pseudo atomic calculation performed for Ni 3d8 4s2
 
 Converged in 41 iterations to a total energy of -1369.7890 eV
 Calculation parallelised over 48 processes.
 Data is distributed by G-vector(48-way)

 ************************************ Title ************************************
 

 ***************************** General Parameters ******************************
  
 output verbosity                               : normal  (1)
 write checkpoint data to                       : castep.check
 type of calculation                            : geometry optimization
 stress calculation                             : off
 density difference calculation                 : off
 electron localisation func (ELF) calculation   : off
 Hirshfeld analysis                             : off
 molecular orbital projected DOS                : off
 deltaSCF calculation                           : off
 unlimited duration calculation
 timing information                             : on
 memory usage estimate                          : on
 write extra output files                       : on
 write final potential to formatted file        : off
 write final density to formatted file          : off
 write BibTeX reference list                    : on
 write OTFG pseudopotential files               : on
 write electrostatic potential file             : on
 write bands file                               : on
 checkpoint writing                             : both castep_bin and check files
  
 output         length unit                     : A
 output           mass unit                     : amu
 output           time unit                     : ps
 output         charge unit                     : e
 output           spin unit                     : hbar/2
 output         energy unit                     : eV
 output          force unit                     : eV/A
 output       velocity unit                     : A/ps
 output       pressure unit                     : GPa
 output     inv_length unit                     : 1/A
 output      frequency unit                     : cm-1
 output force constant unit                     : eV/A**2
 output         volume unit                     : A**3
 output   IR intensity unit                     : (D/A)**2/amu
 output         dipole unit                     : D
 output         efield unit                     : eV/A/e
 output        entropy unit                     : J/mol/K
 output    efield chi2 unit                     : pm/V
  
 wavefunctions paging                           : none
 random number generator seed                   : randomised (155258236)
 data distribution                              : optimal for this architecture
 optimization strategy                          : maximize speed(+++)

 *********************** Exchange-Correlation Parameters ***********************
  
 using functional                               : revised Perdew Burke Ernzerhof
 relativistic treatment                         : Koelling-Harmon
 DFT+D: Semi-empirical dispersion correction    : off

 ************************* Pseudopotential Parameters **************************
  
 pseudopotential representation                 : reciprocal space
 <beta|phi> representation                      : reciprocal space
 spin-orbit coupling                            : off

 **************************** Basis Set Parameters *****************************
  
 plane wave basis set cut-off                   :   900.0000   eV
 size of standard grid                          :     1.7500
 size of   fine   gmax                          :    26.8966   1/A
 finite basis set correction                    : automatic
 number of sample energies                      :          3
           sample  spacing                      :     5.0000   eV

 **************************** Electronic Parameters ****************************
  
 number of  electrons                           :  2112.    
 net charge of system                           :  0.000    
 treating system as non-spin-polarized
 number of bands                                :       1168

 ********************* Electronic Minimization Parameters **********************
  
 Method: Treating system as metallic with density mixing treatment of electrons,
         and number of  SD  steps               :          1
         and number of  CG  steps               :          4
  
 total energy / atom convergence tol.           : 0.1000E-05   eV
 eigen-energy convergence tolerance             : 0.2192E-06   eV
 max force / atom convergence tol.              : ignored
 convergence tolerance window                   :          3   cycles
 max. number of SCF cycles                      :        360
 number of fixed-spin iterations                :         10
 smearing scheme                                : Gaussian
 smearing width                                 : 0.2000       eV
 Fermi energy convergence tolerance             : 0.2721E-13   eV
 periodic dipole correction                     : NONE

 ************************** Density Mixing Parameters **************************
  
 density-mixing scheme                          : Pulay
 max. length of mixing history                  :         20
 charge density mixing amplitude                : 0.8000    
 cut-off energy for mixing                      :  900.0       eV

 *********************** Population Analysis Parameters ************************
  
 Population analysis with cutoff                :  3.000       A
 Population analysis output                     : summary and pdos components

 ********************** Geometry Optimization Parameters ***********************
  
 optimization method                            : LBFGS
 max. no. of LBFGS updates                      : unbounded
 preconditioned LBFGS is activated
 preconditioner type                            : EXP
     stabilization constant                     :     0.1000
     parameter A                                :     3.0000
     nearest neighbor distance                  : automatic
     cut-off distance                           : automatic
     parameter mu                               : automatic
 variable cell method                           : fixed basis quality
 max. number of steps                           :         30
 estimated bulk modulus                         :  500.0       GPa
 estimated <frequency>                          :  1668.       cm-1
 geom line minimiser                            : on
 with line minimiser tolerance                  :     0.4000
 total energy convergence tolerance             : 0.2000E-04   eV/atom
        max ionic |force| tolerance             : 0.5000E-01   eV/A
 max ionic |displacement| tolerance             : 0.1000E-02   A
   max |stress component| tolerance             : 0.1000       GPa
 convergence tolerance window                   :          2   steps
 backup results every                           :          5   steps
 write geom trajectory file                     : on

 *******************************************************************************
  
 
                           -------------------------------
                                      Unit Cell
                           -------------------------------
        Real Lattice(A)                      Reciprocal Lattice(1/A)
    14.4528000     0.0000000     0.0000000        0.434738273   0.000000000   0.000000000
     0.0000000    14.4528000     0.0000000        0.000000000   0.434738273   0.000000000
     0.0000000     0.0000000    14.4528000        0.000000000   0.000000000   0.434738273
 
                       Lattice parameters(A)       Cell Angles
                    a =     14.452800          alpha =   90.000000
                    b =     14.452800          beta  =   90.000000
                    c =     14.452800          gamma =   90.000000
 
                       Current cell volume =          3018.950406       A**3
                                   density =             4.304791   AMU/A**3
                                           =             7.148274     g/cm^3
 
                           -------------------------------
                                     Cell Contents
                           -------------------------------
                         Total number of ions in cell =  256
                      Total number of species in cell =    2
                        Max number of any one species =  192
 
            xxxxxxxxxxxxxxxxxxxxxxxxxxxxxxxxxxxxxxxxxxxxxxxxxxxxxxxxxxxx
            x  Element    Atom        Fractional coordinates of atoms  x
            x            Number           u          v          w      x
            x----------------------------------------------------------x
            x  Al           1         0.562500   0.812500   0.812500   x 
            x  Al           2         0.687500   0.937500   0.812500   x 
            x  Al           3         0.562500   0.937500   0.937500   x 
            x  Al           4         0.437500   0.937500   0.812500   x 
            x  Al           5         0.187500   0.937500   0.812500   x 
            x  Al           6         0.187500   0.812500   0.937500   x 
            x  Al           7         0.937500   0.312500   0.937500   x 
            x  Al           8         0.687500   0.312500   0.937500   x 
            x  Al           9         0.562500   0.437500   0.937500   x 
            x  Al          10         0.187500   0.312500   0.937500   x 
            x  Al          11         0.812500   0.062500   0.812500   x 
            x  Al          12         0.937500   0.187500   0.812500   x 
            x  Al          13         0.687500   0.062500   0.937500   x 
            x  Al          14         0.562500   0.187500   0.937500   x 
            x  Al          15         0.312500   0.062500   0.812500   x 
            x  Al          16         0.812500   0.812500   0.562500   x 
            x  Al          17         0.812500   0.937500   0.687500   x 
            x  Al          18         0.562500   0.812500   0.562500   x 
            x  Al          19         0.687500   0.937500   0.562500   x 
            x  Al          20         0.687500   0.812500   0.687500   x 
            x  Al          21         0.437500   0.937500   0.562500   x 
            x  Al          22         0.187500   0.937500   0.562500   x 
            x  Al          23         0.937500   0.687500   0.562500   x 
            x  Al          24         0.812500   0.687500   0.687500   x 
            x  Al          25         0.687500   0.687500   0.562500   x 
            x  Al          26         0.562500   0.687500   0.687500   x 
            x  Al          27         0.437500   0.562500   0.687500   x 
            x  Al          28         0.812500   0.437500   0.687500   x 
            x  Al          29         0.687500   0.312500   0.687500   x 
            x  Al          30         0.562500   0.437500   0.687500   x 
            x  Al          31         0.187500   0.437500   0.562500   x 
            x  Al          32         0.937500   0.062500   0.687500   x 
            x  Al          33         0.562500   0.187500   0.687500   x 
            x  Al          34         0.312500   0.062500   0.562500   x 
            x  Al          35         0.437500   0.187500   0.562500   x 
            x  Al          36         0.812500   0.812500   0.312500   x 
            x  Al          37         0.312500   0.937500   0.437500   x 
            x  Al          38         0.062500   0.812500   0.312500   x 
            x  Al          39         0.062500   0.937500   0.437500   x 
            x  Al          40         0.187500   0.687500   0.312500   x 
            x  Al          41         0.062500   0.687500   0.437500   x 
            x  Al          42         0.937500   0.312500   0.437500   x 
            x  Al          43         0.687500   0.437500   0.312500   x 
            x  Al          44         0.312500   0.312500   0.312500   x 
            x  Al          45         0.812500   0.062500   0.312500   x 
            x  Al          46         0.937500   0.187500   0.312500   x 
            x  Al          47         0.812500   0.187500   0.437500   x 
            x  Al          48         0.687500   0.187500   0.312500   x 
            x  Al          49         0.687500   0.062500   0.437500   x 
            x  Al          50         0.562500   0.812500   0.062500   x 
            x  Al          51         0.312500   0.812500   0.062500   x 
            x  Al          52         0.062500   0.562500   0.062500   x 
            x  Al          53         0.062500   0.687500   0.187500   x 
            x  Al          54         0.937500   0.312500   0.187500   x 
            x  Al          55         0.687500   0.437500   0.062500   x 
            x  Al          56         0.437500   0.437500   0.062500   x 
            x  Al          57         0.062500   0.312500   0.062500   x 
            x  Al          58         0.812500   0.062500   0.062500   x 
            x  Al          59         0.937500   0.062500   0.187500   x 
            x  Al          60         0.812500   0.187500   0.187500   x 
            x  Al          61         0.562500   0.187500   0.187500   x 
            x  Al          62         0.437500   0.187500   0.062500   x 
            x  Al          63         0.312500   0.187500   0.187500   x 
            x  Al          64         0.187500   0.187500   0.062500   x 
            x  Ni           1         0.062500   0.187500   0.187500   x 
            x  Ni           2         0.187500   0.062500   0.187500   x 
            x  Ni           3         0.062500   0.062500   0.062500   x 
            x  Ni           4         0.437500   0.062500   0.187500   x 
            x  Ni           5         0.312500   0.062500   0.062500   x 
            x  Ni           6         0.687500   0.062500   0.187500   x 
            x  Ni           7         0.687500   0.187500   0.062500   x 
            x  Ni           8         0.562500   0.062500   0.062500   x 
            x  Ni           9         0.937500   0.187500   0.062500   x 
            x  Ni          10         0.062500   0.437500   0.187500   x 
            x  Ni          11         0.187500   0.312500   0.187500   x 
            x  Ni          12         0.187500   0.437500   0.062500   x 
            x  Ni          13         0.312500   0.437500   0.187500   x 
            x  Ni          14         0.437500   0.312500   0.187500   x 
            x  Ni          15         0.312500   0.312500   0.062500   x 
            x  Ni          16         0.562500   0.437500   0.187500   x 
            x  Ni          17         0.687500   0.312500   0.187500   x 
            x  Ni          18         0.562500   0.312500   0.062500   x 
            x  Ni          19         0.812500   0.437500   0.187500   x 
            x  Ni          20         0.937500   0.437500   0.062500   x 
            x  Ni          21         0.812500   0.312500   0.062500   x 
            x  Ni          22         0.187500   0.562500   0.187500   x 
            x  Ni          23         0.187500   0.687500   0.062500   x 
            x  Ni          24         0.312500   0.687500   0.187500   x 
            x  Ni          25         0.437500   0.562500   0.187500   x 
            x  Ni          26         0.437500   0.687500   0.062500   x 
            x  Ni          27         0.312500   0.562500   0.062500   x 
            x  Ni          28         0.562500   0.687500   0.187500   x 
            x  Ni          29         0.687500   0.562500   0.187500   x 
            x  Ni          30         0.687500   0.687500   0.062500   x 
            x  Ni          31         0.562500   0.562500   0.062500   x 
            x  Ni          32         0.812500   0.687500   0.187500   x 
            x  Ni          33         0.937500   0.562500   0.187500   x 
            x  Ni          34         0.937500   0.687500   0.062500   x 
            x  Ni          35         0.812500   0.562500   0.062500   x 
            x  Ni          36         0.062500   0.937500   0.187500   x 
            x  Ni          37         0.187500   0.812500   0.187500   x 
            x  Ni          38         0.187500   0.937500   0.062500   x 
            x  Ni          39         0.062500   0.812500   0.062500   x 
            x  Ni          40         0.312500   0.937500   0.187500   x 
            x  Ni          41         0.437500   0.812500   0.187500   x 
            x  Ni          42         0.437500   0.937500   0.062500   x 
            x  Ni          43         0.562500   0.937500   0.187500   x 
            x  Ni          44         0.687500   0.812500   0.187500   x 
            x  Ni          45         0.687500   0.937500   0.062500   x 
            x  Ni          46         0.812500   0.937500   0.187500   x 
            x  Ni          47         0.937500   0.812500   0.187500   x 
            x  Ni          48         0.937500   0.937500   0.062500   x 
            x  Ni          49         0.812500   0.812500   0.062500   x 
            x  Ni          50         0.062500   0.187500   0.437500   x 
            x  Ni          51         0.187500   0.062500   0.437500   x 
            x  Ni          52         0.187500   0.187500   0.312500   x 
            x  Ni          53         0.062500   0.062500   0.312500   x 
            x  Ni          54         0.312500   0.187500   0.437500   x 
            x  Ni          55         0.437500   0.062500   0.437500   x 
            x  Ni          56         0.437500   0.187500   0.312500   x 
            x  Ni          57         0.312500   0.062500   0.312500   x 
            x  Ni          58         0.562500   0.187500   0.437500   x 
            x  Ni          59         0.562500   0.062500   0.312500   x 
            x  Ni          60         0.937500   0.062500   0.437500   x 
            x  Ni          61         0.062500   0.437500   0.437500   x 
            x  Ni          62         0.187500   0.312500   0.437500   x 
            x  Ni          63         0.187500   0.437500   0.312500   x 
            x  Ni          64         0.062500   0.312500   0.312500   x 
            x  Ni          65         0.312500   0.437500   0.437500   x 
            x  Ni          66         0.437500   0.312500   0.437500   x 
            x  Ni          67         0.437500   0.437500   0.312500   x 
            x  Ni          68         0.562500   0.437500   0.437500   x 
            x  Ni          69         0.687500   0.312500   0.437500   x 
            x  Ni          70         0.562500   0.312500   0.312500   x 
            x  Ni          71         0.812500   0.437500   0.437500   x 
            x  Ni          72         0.937500   0.437500   0.312500   x 
            x  Ni          73         0.812500   0.312500   0.312500   x 
            x  Ni          74         0.187500   0.562500   0.437500   x 
            x  Ni          75         0.062500   0.562500   0.312500   x 
            x  Ni          76         0.312500   0.687500   0.437500   x 
            x  Ni          77         0.437500   0.562500   0.437500   x 
            x  Ni          78         0.437500   0.687500   0.312500   x 
            x  Ni          79         0.312500   0.562500   0.312500   x 
            x  Ni          80         0.562500   0.687500   0.437500   x 
            x  Ni          81         0.687500   0.562500   0.437500   x 
            x  Ni          82         0.687500   0.687500   0.312500   x 
            x  Ni          83         0.562500   0.562500   0.312500   x 
            x  Ni          84         0.812500   0.687500   0.437500   x 
            x  Ni          85         0.937500   0.562500   0.437500   x 
            x  Ni          86         0.937500   0.687500   0.312500   x 
            x  Ni          87         0.812500   0.562500   0.312500   x 
            x  Ni          88         0.187500   0.812500   0.437500   x 
            x  Ni          89         0.187500   0.937500   0.312500   x 
            x  Ni          90         0.437500   0.812500   0.437500   x 
            x  Ni          91         0.437500   0.937500   0.312500   x 
            x  Ni          92         0.312500   0.812500   0.312500   x 
            x  Ni          93         0.562500   0.937500   0.437500   x 
            x  Ni          94         0.687500   0.812500   0.437500   x 
            x  Ni          95         0.687500   0.937500   0.312500   x 
            x  Ni          96         0.562500   0.812500   0.312500   x 
            x  Ni          97         0.812500   0.937500   0.437500   x 
            x  Ni          98         0.937500   0.812500   0.437500   x 
            x  Ni          99         0.937500   0.937500   0.312500   x 
            x  Ni         100         0.062500   0.187500   0.687500   x 
            x  Ni         101         0.187500   0.062500   0.687500   x 
            x  Ni         102         0.187500   0.187500   0.562500   x 
            x  Ni         103         0.062500   0.062500   0.562500   x 
            x  Ni         104         0.312500   0.187500   0.687500   x 
            x  Ni         105         0.437500   0.062500   0.687500   x 
            x  Ni         106         0.687500   0.062500   0.687500   x 
            x  Ni         107         0.687500   0.187500   0.562500   x 
            x  Ni         108         0.562500   0.062500   0.562500   x 
            x  Ni         109         0.812500   0.187500   0.687500   x 
            x  Ni         110         0.937500   0.187500   0.562500   x 
            x  Ni         111         0.812500   0.062500   0.562500   x 
            x  Ni         112         0.062500   0.437500   0.687500   x 
            x  Ni         113         0.187500   0.312500   0.687500   x 
            x  Ni         114         0.062500   0.312500   0.562500   x 
            x  Ni         115         0.312500   0.437500   0.687500   x 
            x  Ni         116         0.437500   0.312500   0.687500   x 
            x  Ni         117         0.437500   0.437500   0.562500   x 
            x  Ni         118         0.312500   0.312500   0.562500   x 
            x  Ni         119         0.687500   0.437500   0.562500   x 
            x  Ni         120         0.562500   0.312500   0.562500   x 
            x  Ni         121         0.937500   0.312500   0.687500   x 
            x  Ni         122         0.937500   0.437500   0.562500   x 
            x  Ni         123         0.812500   0.312500   0.562500   x 
            x  Ni         124         0.062500   0.687500   0.687500   x 
            x  Ni         125         0.187500   0.562500   0.687500   x 
            x  Ni         126         0.187500   0.687500   0.562500   x 
            x  Ni         127         0.062500   0.562500   0.562500   x 
            x  Ni         128         0.312500   0.687500   0.687500   x 
            x  Ni         129         0.437500   0.687500   0.562500   x 
            x  Ni         130         0.312500   0.562500   0.562500   x 
            x  Ni         131         0.687500   0.562500   0.687500   x 
            x  Ni         132         0.562500   0.562500   0.562500   x 
            x  Ni         133         0.937500   0.562500   0.687500   x 
            x  Ni         134         0.812500   0.562500   0.562500   x 
            x  Ni         135         0.062500   0.937500   0.687500   x 
            x  Ni         136         0.187500   0.812500   0.687500   x 
            x  Ni         137         0.062500   0.812500   0.562500   x 
            x  Ni         138         0.312500   0.937500   0.687500   x 
            x  Ni         139         0.437500   0.812500   0.687500   x 
            x  Ni         140         0.312500   0.812500   0.562500   x 
            x  Ni         141         0.562500   0.937500   0.687500   x 
            x  Ni         142         0.937500   0.812500   0.687500   x 
            x  Ni         143         0.937500   0.937500   0.562500   x 
            x  Ni         144         0.062500   0.187500   0.937500   x 
            x  Ni         145         0.187500   0.062500   0.937500   x 
            x  Ni         146         0.187500   0.187500   0.812500   x 
            x  Ni         147         0.062500   0.062500   0.812500   x 
            x  Ni         148         0.312500   0.187500   0.937500   x 
            x  Ni         149         0.437500   0.062500   0.937500   x 
            x  Ni         150         0.437500   0.187500   0.812500   x 
            x  Ni         151         0.687500   0.187500   0.812500   x 
            x  Ni         152         0.562500   0.062500   0.812500   x 
            x  Ni         153         0.812500   0.187500   0.937500   x 
            x  Ni         154         0.937500   0.062500   0.937500   x 
            x  Ni         155         0.062500   0.437500   0.937500   x 
            x  Ni         156         0.187500   0.437500   0.812500   x 
            x  Ni         157         0.062500   0.312500   0.812500   x 
            x  Ni         158         0.312500   0.437500   0.937500   x 
            x  Ni         159         0.437500   0.312500   0.937500   x 
            x  Ni         160         0.437500   0.437500   0.812500   x 
            x  Ni         161         0.312500   0.312500   0.812500   x 
            x  Ni         162         0.687500   0.437500   0.812500   x 
            x  Ni         163         0.562500   0.312500   0.812500   x 
            x  Ni         164         0.812500   0.437500   0.937500   x 
            x  Ni         165         0.937500   0.437500   0.812500   x 
            x  Ni         166         0.812500   0.312500   0.812500   x 
            x  Ni         167         0.062500   0.687500   0.937500   x 
            x  Ni         168         0.187500   0.562500   0.937500   x 
            x  Ni         169         0.187500   0.687500   0.812500   x 
            x  Ni         170         0.062500   0.562500   0.812500   x 
            x  Ni         171         0.312500   0.687500   0.937500   x 
            x  Ni         172         0.437500   0.562500   0.937500   x 
            x  Ni         173         0.437500   0.687500   0.812500   x 
            x  Ni         174         0.312500   0.562500   0.812500   x 
            x  Ni         175         0.562500   0.687500   0.937500   x 
            x  Ni         176         0.687500   0.562500   0.937500   x 
            x  Ni         177         0.687500   0.687500   0.812500   x 
            x  Ni         178         0.562500   0.562500   0.812500   x 
            x  Ni         179         0.812500   0.687500   0.937500   x 
            x  Ni         180         0.937500   0.562500   0.937500   x 
            x  Ni         181         0.937500   0.687500   0.812500   x 
            x  Ni         182         0.812500   0.562500   0.812500   x 
            x  Ni         183         0.062500   0.937500   0.937500   x 
            x  Ni         184         0.062500   0.812500   0.812500   x 
            x  Ni         185         0.312500   0.937500   0.937500   x 
            x  Ni         186         0.437500   0.812500   0.937500   x 
            x  Ni         187         0.312500   0.812500   0.812500   x 
            x  Ni         188         0.687500   0.812500   0.937500   x 
            x  Ni         189         0.812500   0.937500   0.937500   x 
            x  Ni         190         0.937500   0.812500   0.937500   x 
            x  Ni         191         0.937500   0.937500   0.812500   x 
            x  Ni         192         0.812500   0.812500   0.812500   x 
            xxxxxxxxxxxxxxxxxxxxxxxxxxxxxxxxxxxxxxxxxxxxxxxxxxxxxxxxxxxx
 
 
                         No user defined ionic velocities
 
                           -------------------------------
                                   Details of Species
                           -------------------------------
 
                               Mass of species in AMU
                                    Al   26.9815400
                                    Ni   58.6934000
 
                          Electric Quadrupole Moment (Barn)
                                    Al    0.1466000 Isotope 27
                                    Ni    0.1620000 Isotope 61
 
                          Files used for pseudopotentials:
                                    Al 3|2.2|2.2|1.4|4|5|5|30:31:32U2U2
                                    Ni 3|2.4|2.4|1.0|8|9|10|40:41:32U2U2(qc=5.5)
 
                           -------------------------------
                              k-Points For BZ Sampling
                           -------------------------------
                       MP grid size for SCF calculation is  1  1  1
                            with an offset of   0.000  0.000  0.000
                       Number of kpoints used =             1
 
                           -------------------------------
                               Symmetry and Constraints
                           -------------------------------
 
                      Maximum deviation from symmetry =  0.00000         ANG
 
                      Number of symmetry operations   =           1
                      Number of ionic constraints     =           3
                      Point group of crystal =     1: C1, 1, 1
                      Space group of crystal =     1: P1, P 1
 
             Set iprint > 1 for details on symmetry rotations/translations
 
                         Centre of mass is constrained
             Set iprint > 1 for details of linear ionic constraints
 
                         Number of cell constraints= 0
                         Cell constraints are:  1 2 3 4 5 6
 
                         External pressure/stress (GPa)
                          0.00000   0.00000   0.00000
                                    0.00000   0.00000
                                              0.00000
  
+---------------- MEMORY AND SCRATCH DISK ESTIMATES PER PROCESS --------------+
|                                                     Memory          Disk    |
| Baseline code, static data and system overhead     6723.0 MB         0.0 MB |
| BLAS internal memory storage                          0.0 MB         0.0 MB |
| Model and support data                              703.7 MB         0.0 MB |
| Electronic energy minimisation requirements         158.6 MB         0.0 MB |
| Force calculation requirements                        5.4 MB         0.0 MB |
|                                               ----------------------------- |
| Approx. total storage required per process         7585.3 MB         0.0 MB |
|                                                                             |
| Requirements will fluctuate during execution and may exceed these estimates |
+-----------------------------------------------------------------------------+
Calculating finite basis set correction with  3 cut-off energies.
Calculating total energy with cut-off of  890.000 eV.
------------------------------------------------------------------------ <-- SCF
SCF loop      Energy           Fermi           Energy gain       Timer   <-- SCF
                               energy          per atom          (sec)   <-- SCF
------------------------------------------------------------------------ <-- SCF
Initial  -2.20452809E+005  0.00000000E+000                        20.40  <-- SCF
      1  -2.63876292E+005  7.18616655E+000   1.69622979E+002      59.79  <-- SCF
      2  -2.70716609E+005  3.85202382E+000   2.67199884E+001      94.01  <-- SCF
      3  -2.71439141E+005  3.75959120E+000   2.82239140E+000     130.18  <-- SCF
      4  -2.71502126E+005  3.88436594E+000   2.46035849E-001     161.92  <-- SCF
      5  -2.71847023E+005  6.74100823E+000   1.34725534E+000     202.26  <-- SCF
      6  -2.71598216E+005  5.74320004E+000  -9.71903122E-001     249.39  <-- SCF
      7  -2.71503913E+005  4.81859111E+000  -3.68370290E-001     290.32  <-- SCF
      8  -2.71477643E+005  4.52947207E+000  -1.02620716E-001     334.36  <-- SCF
      9  -2.71471305E+005  4.51516223E+000  -2.47577850E-002     373.97  <-- SCF
     10  -2.71487096E+005  4.63510357E+000   6.16871452E-002     413.70  <-- SCF
     11  -2.71475971E+005  4.52864335E+000  -4.34587612E-002     455.78  <-- SCF
     12  -2.71469545E+005  4.47319689E+000  -2.51025598E-002     495.23  <-- SCF
     13  -2.71469137E+005  4.47514908E+000  -1.59303505E-003     535.15  <-- SCF
     14  -2.71469767E+005  4.48234573E+000   2.46142655E-003     574.63  <-- SCF
     15  -2.71468549E+005  4.47924949E+000  -4.75646137E-003     613.83  <-- SCF
     16  -2.71468393E+005  4.48028459E+000  -6.09872383E-004     652.89  <-- SCF
     17  -2.71468474E+005  4.48380054E+000   3.14652699E-004     692.31  <-- SCF
     18  -2.71468391E+005  4.48422328E+000  -3.21776500E-004     731.32  <-- SCF
     19  -2.71468331E+005  4.48576214E+000  -2.37838136E-004     770.42  <-- SCF
     20  -2.71468360E+005  4.48643313E+000   1.14567654E-004     810.06  <-- SCF
     21  -2.71468342E+005  4.48702287E+000  -7.15503708E-005     848.86  <-- SCF
     22  -2.71468317E+005  4.48707822E+000  -9.54407088E-005     887.08  <-- SCF
     23  -2.71468317E+005  4.48720705E+000  -1.32156870E-006     925.91  <-- SCF
     24  -2.71468320E+005  4.48727132E+000   1.07875286E-005     963.88  <-- SCF
     25  -2.71468315E+005  4.48732365E+000  -1.79179042E-005    1000.48  <-- SCF
     26  -2.71468315E+005  4.48729077E+000  -1.62572604E-006    1025.17  <-- SCF
     27  -2.71468315E+005  4.48734451E+000   5.01533897E-007    1049.83  <-- SCF
     28  -2.71468315E+005  4.48732526E+000  -1.13741718E-007    1074.55  <-- SCF
------------------------------------------------------------------------ <-- SCF
 
Final energy, E             =  -271462.4527397     eV
Final free energy (E-TS)    =  -271468.3147088     eV
(energies not corrected for finite basis set)
 
NB est. 0K energy (E-0.5TS)      =  -271465.3837242     eV
 
Calculating total energy with cut-off of  895.000 eV.
------------------------------------------------------------------------ <-- SCF
SCF loop      Energy           Fermi           Energy gain       Timer   <-- SCF
                               energy          per atom          (sec)   <-- SCF
------------------------------------------------------------------------ <-- SCF
Initial  -2.71462448E+005  0.00000000E+000                      1087.14  <-- SCF
      1  -2.71468542E+005  4.49166543E+000   2.38013282E-002    1125.36  <-- SCF
      2  -2.71468542E+005  4.49166488E+000   1.55118651E-006    1156.55  <-- SCF
      3  -2.71524130E+005  4.76877044E+000   2.17139677E-001    1197.79  <-- SCF
      4  -2.71478157E+005  4.48974261E+000  -1.79581418E-001    1239.05  <-- SCF
      5  -2.71468938E+005  4.46679318E+000  -3.60123589E-002    1279.15  <-- SCF
      6  -2.71468377E+005  4.46771864E+000  -2.19013410E-003    1319.29  <-- SCF
      7  -2.71468426E+005  4.48077016E+000   1.90212008E-004    1359.09  <-- SCF
      8  -2.71468374E+005  4.49153369E+000  -2.03022773E-004    1398.47  <-- SCF
      9  -2.71468333E+005  4.49152427E+000  -1.58596380E-004    1437.80  <-- SCF
     10  -2.71468328E+005  4.48749519E+000  -2.12976560E-005    1476.49  <-- SCF
     11  -2.71468320E+005  4.48460778E+000  -3.16165089E-005    1514.45  <-- SCF
     12  -2.71468319E+005  4.48461159E+000  -4.58511994E-006    1544.02  <-- SCF
     13  -2.71468318E+005  4.48525847E+000  -2.39325666E-006    1572.65  <-- SCF
     14  -2.71468316E+005  4.48652234E+000  -7.72769939E-006    1599.74  <-- SCF
     15  -2.71468316E+005  4.48671274E+000  -1.24327530E-006    1624.52  <-- SCF
     16  -2.71468316E+005  4.48695921E+000   2.55740163E-006    1650.59  <-- SCF
     17  -2.71468316E+005  4.48734121E+000  -2.54256986E-006    1676.72  <-- SCF
     18  -2.71468315E+005  4.48724589E+000  -2.11040787E-006    1701.43  <-- SCF
     19  -2.71468315E+005  4.48732522E+000  -1.49117151E-007    1726.03  <-- SCF
     20  -2.71468315E+005  4.48735382E+000  -2.19177956E-008    1750.55  <-- SCF
------------------------------------------------------------------------ <-- SCF
 
Final energy, E             =  -271462.4540665     eV
Final free energy (E-TS)    =  -271468.3150199     eV
(energies not corrected for finite basis set)
 
NB est. 0K energy (E-0.5TS)      =  -271465.3845432     eV
 
Calculating total energy with cut-off of  900.000 eV.
------------------------------------------------------------------------ <-- SCF
SCF loop      Energy           Fermi           Energy gain       Timer   <-- SCF
                               energy          per atom          (sec)   <-- SCF
------------------------------------------------------------------------ <-- SCF
Initial  -2.71462452E+005  0.00000000E+000                      1763.12  <-- SCF
      1  -2.71468469E+005  4.49577372E+000   2.35068639E-002    1802.85  <-- SCF
      2  -2.71468470E+005  4.49577340E+000   7.56975337E-007    1831.43  <-- SCF
      3  -2.71503718E+005  4.63481338E+000   1.37689871E-001    1874.12  <-- SCF
      4  -2.71474602E+005  4.47001200E+000  -1.13736787E-001    1916.19  <-- SCF
      5  -2.71468613E+005  4.46599761E+000  -2.33914078E-002    1956.96  <-- SCF
      6  -2.71468355E+005  4.47113347E+000  -1.00808895E-003    1998.01  <-- SCF
      7  -2.71468403E+005  4.48328643E+000   1.86756304E-004    2039.11  <-- SCF
      8  -2.71468339E+005  4.49229279E+000  -2.49244968E-004    2079.13  <-- SCF
      9  -2.71468327E+005  4.49089180E+000  -4.81390393E-005    2119.61  <-- SCF
     10  -2.71468322E+005  4.48716816E+000  -2.05705174E-005    2159.73  <-- SCF
     11  -2.71468318E+005  4.48541145E+000  -1.66103751E-005    2198.17  <-- SCF
     12  -2.71468317E+005  4.48546852E+000  -2.73814054E-006    2223.95  <-- SCF
     13  -2.71468317E+005  4.48630806E+000  -8.11245755E-007    2251.62  <-- SCF
     14  -2.71468315E+005  4.48723797E+000  -4.31914468E-006    2278.40  <-- SCF
     15  -2.71468315E+005  4.48735719E+000  -3.04782630E-007    2303.71  <-- SCF
     16  -2.71468316E+005  4.48740176E+000   1.86480768E-006    2328.99  <-- SCF
     17  -2.71468315E+005  4.48729374E+000  -1.91658003E-006    2354.27  <-- SCF
     18  -2.71468315E+005  4.48732057E+000  -4.39046747E-007    2379.50  <-- SCF
     19  -2.71468315E+005  4.48733802E+000  -2.78000379E-008    2404.64  <-- SCF
------------------------------------------------------------------------ <-- SCF
 
Final energy, E             =  -271462.4544955     eV
Final free energy (E-TS)    =  -271468.3152814     eV
(energies not corrected for finite basis set)
 
NB est. 0K energy (E-0.5TS)      =  -271465.3848885     eV
 
 For future reference: finite basis dEtot/dlog(Ecut) =      -0.056092eV
 Total energy corrected for finite basis set = -271468.315353 eV
 
+---------------- MEMORY AND SCRATCH DISK ESTIMATES PER PROCESS --------------+
|                                                     Memory          Disk    |
| Model and support data                              723.2 MB         0.0 MB |
| Electronic energy minimisation requirements         158.6 MB         0.0 MB |
| Geometry minimisation requirements                  195.6 MB         0.0 MB |
|                                               ----------------------------- |
| Approx. total storage required per process         1077.4 MB         0.0 MB |
|                                                                             |
| Requirements will fluctuate during execution and may exceed these estimates |
+-----------------------------------------------------------------------------+
 
 
 ************************************** Forces **************************************
 *                                                                                  *
 *                           Cartesian components (eV/A)                            *
 * -------------------------------------------------------------------------------- *
 *                         x                    y                    z              *
 *                                                                                  *
 * Al              1     -0.77847             -1.58642              0.78561         *
 * Al              2      0.04925              0.01799              0.11856         *
 * Al              3     -0.81064              0.65073              1.53662         *
 * Al              4     -0.77907             -0.08010             -0.62178         *
 * Al              5     -0.82180             -0.08168             -0.72068         *
 * Al              6     -0.79175             -0.82461             -0.01935         *
 * Al              7     -0.66710              0.91436             -0.08471         *
 * Al              8      1.50285             -0.72945             -0.75244         *
 * Al              9     -0.83946              0.92057             -1.48781         *
 * Al             10      0.77564              0.79433             -1.57335         *
 * Al             11      0.04810              0.76032              0.76498         *
 * Al             12      0.76234              0.80116             -0.07110         *
 * Al             13     -0.03027              0.68766              0.78884         *
 * Al             14     -0.80813             -0.05353             -0.77614         *
 * Al             15     -0.03851              1.53994             -0.00699         *
 * Al             16      1.17984              0.72422             -1.97722         *
 * Al             17      1.40173             -0.19337             -0.07087         *
 * Al             18     -1.43623             -0.21514             -1.41758         *
 * Al             19     -0.50473              1.32719             -0.71441         *
 * Al             20      0.14223             -0.17820              1.12961         *
 * Al             21      0.68389             -0.05214              0.64441         *
 * Al             22     -0.80679             -0.69060              1.53970         *
 * Al             23      0.73814             -0.88773             -0.01497         *
 * Al             24      0.74343             -1.50559              2.19633         *
 * Al             25     -0.01358             -2.03653             -2.06393         *
 * Al             26     -0.65818             -1.44968              0.60329         *
 * Al             27     -1.55178             -0.04069              0.04278         *
 * Al             28      0.82805              0.85298             -0.00330         *
 * Al             29      0.63167             -0.63185             -0.03143         *
 * Al             30     -0.07540              0.06461             -0.03445         *
 * Al             31      0.04232              0.00920              0.05095         *
 * Al             32      1.65901             -0.02741             -1.43675         *
 * Al             33     -0.15734             -0.69827              0.69257         *
 * Al             34     -0.79709              1.54733              0.72882         *
 * Al             35     -0.03496              0.89616             -0.71235         *
 * Al             36      0.03819             -0.07351             -0.05485         *
 * Al             37      0.05027             -0.74173             -2.28746         *
 * Al             38     -0.74899              1.52461             -0.78571         *
 * Al             39     -0.74504              0.75251             -0.09228         *
 * Al             40      2.31277             -0.83357             -0.07722         *
 * Al             41     -0.05085             -0.88021              0.73376         *
 * Al             42      0.89949              1.53724              0.79850         *
 * Al             43     -0.03706              0.17545              0.00051         *
 * Al             44      0.01599              0.78777              0.80866         *
 * Al             45     -0.01647             -2.77114             -0.01576         *
 * Al             46      2.19812             -0.22216              0.66507         *
 * Al             47     -0.15923              0.61569              2.05314         *
 * Al             48     -1.39750              1.33693              0.17884         *
 * Al             49     -1.41598             -0.65027              0.54559         *
 * Al             50     -0.04782             -0.86013              0.81164         *
 * Al             51      0.76889             -0.08189              0.80920         *
 * Al             52     -0.00243             -0.70856             -0.76740         *
 * Al             53     -0.76680             -0.02592             -0.77536         *
 * Al             54      0.04131              1.66403              0.00352         *
 * Al             55      0.86165              0.91228              1.48745         *
 * Al             56     -0.77831              0.17952              0.73910         *
 * Al             57     -0.00122              0.90176              0.74989         *
 * Al             58      0.02239             -0.75644             -0.76402         *
 * Al             59      2.17176             -1.46084             -0.58862         *
 * Al             60     -1.29589              1.38607             -1.39269         *
 * Al             61     -0.03629              0.02973              0.14130         *
 * Al             62     -0.81162             -0.03539             -0.73208         *
 * Al             63     -0.02259             -0.76680              0.79060         *
 * Al             64      0.06848             -1.54086             -0.00626         *
 * Ni              1     -0.05587              0.20556              0.11654         *
 * Ni              2     -0.06677             -0.04791              0.05758         *
 * Ni              3      0.02032             -0.10504             -0.11423         *
 * Ni              4     -0.03300             -0.01834             -0.08324         *
 * Ni              5      0.01732              0.06866              0.12611         *
 * Ni              6      0.14591              0.13540              0.23922         *
 * Ni              7      0.08489             -0.18526             -0.24110         *
 * Ni              8     -0.01043              0.12220              0.01174         *
 * Ni              9      0.00904             -0.29789              0.16798         *
 * Ni             10      0.01732             -0.04702              0.16524         *
 * Ni             11      0.14115             -0.04163             -0.08178         *
 * Ni             12      0.14417             -0.03168             -0.00326         *
 * Ni             13     -0.09988              0.15719              0.02944         *
 * Ni             14      0.10367             -0.12774              0.04264         *
 * Ni             15     -0.13810             -0.10586              0.18889         *
 * Ni             16     -0.13859              0.08973              0.11564         *
 * Ni             17     -0.07838             -0.24626              0.08784         *
 * Ni             18      0.19365              0.25907             -0.23235         *
 * Ni             19      0.14173              0.26351             -0.05648         *
 * Ni             20     -0.18140             -0.23030             -0.04679         *
 * Ni             21     -0.12016              0.07883              0.05878         *
 * Ni             22     -0.02374              0.06436              0.08682         *
 * Ni             23      0.12988             -0.11297              0.00363         *
 * Ni             24      0.13798             -0.18635             -0.06575         *
 * Ni             25     -0.03502              0.08501              0.02950         *
 * Ni             26     -0.02797             -0.15321             -0.00864         *
 * Ni             27     -0.11436              0.08082             -0.00741         *
 * Ni             28     -0.02521             -0.06706              0.13554         *
 * Ni             29      0.00423              0.20203             -0.01022         *
 * Ni             30      0.11027             -0.04194             -0.01210         *
 * Ni             31      0.02258             -0.12239             -0.04056         *
 * Ni             32     -0.03649             -0.06211             -0.11948         *
 * Ni             33     -0.07093              0.01653              0.02545         *
 * Ni             34      0.05441              0.00244              0.01333         *
 * Ni             35      0.09129              0.01154             -0.02970         *
 * Ni             36      0.07187              0.01822             -0.19114         *
 * Ni             37     -0.28620             -0.01861              0.35502         *
 * Ni             38     -0.07317              0.03349              0.01578         *
 * Ni             39     -0.09696              0.15130             -0.04790         *
 * Ni             40      0.01241              0.08762              0.05254         *
 * Ni             41     -0.01435             -0.03346              0.16718         *
 * Ni             42      0.19322              0.14416              0.08581         *
 * Ni             43      0.04117              0.03166              0.12429         *
 * Ni             44     -0.03272             -0.07254              0.02969         *
 * Ni             45     -0.02397             -0.04431             -0.10135         *
 * Ni             46      0.00849              0.06073             -0.20465         *
 * Ni             47      0.02202              0.06577             -0.06263         *
 * Ni             48     -0.02365             -0.11046              0.09378         *
 * Ni             49     -0.03792             -0.05136              0.05827         *
 * Ni             50     -0.04097              0.06912              0.05102         *
 * Ni             51      0.25768             -0.24078              0.21697         *
 * Ni             52     -0.06255              0.00175             -0.08476         *
 * Ni             53      0.15174              0.10335             -0.12225         *
 * Ni             54     -0.02715             -0.07331              0.08943         *
 * Ni             55     -0.19863             -0.20531              0.23525         *
 * Ni             56     -0.11629             -0.01055              0.17152         *
 * Ni             57      0.02268              0.04343              0.02175         *
 * Ni             58      0.07240              0.01256             -0.10423         *
 * Ni             59      0.02071              0.01291             -0.05305         *
 * Ni             60     -0.28535              0.28227              0.01734         *
 * Ni             61      0.03738              0.10560             -0.11731         *
 * Ni             62     -0.13701             -0.09673             -0.00615         *
 * Ni             63     -0.07670              0.16925              0.07101         *
 * Ni             64     -0.04878             -0.09176              0.02369         *
 * Ni             65      0.14964              0.06438             -0.02996         *
 * Ni             66      0.06278              0.09848             -0.09597         *
 * Ni             67      0.11350              0.07855             -0.00156         *
 * Ni             68     -0.17677              0.03227              0.02876         *
 * Ni             69     -0.08291              0.02747              0.20966         *
 * Ni             70     -0.20246             -0.08529              0.01972         *
 * Ni             71     -0.01089              0.15175              0.08896         *
 * Ni             72     -0.04232              0.18854             -0.03910         *
 * Ni             73      0.49807             -0.57829             -0.04700         *
 * Ni             74      0.03423              0.11709             -0.12778         *
 * Ni             75      0.08795              0.10087              0.03098         *
 * Ni             76      0.11040             -0.04205              0.07320         *
 * Ni             77     -0.01385              0.01054              0.05247         *
 * Ni             78     -0.12036             -0.00059             -0.01858         *
 * Ni             79      0.16304             -0.11606              0.02971         *
 * Ni             80      0.06716              0.02115             -0.11835         *
 * Ni             81      0.02621              0.03007             -0.05793         *
 * Ni             82     -0.09438             -0.11672             -0.00214         *
 * Ni             83     -0.06522              0.03188              0.00541         *
 * Ni             84     -0.09486             -0.04766              0.13587         *
 * Ni             85     -0.00289             -0.00272              0.00817         *
 * Ni             86      0.20245             -0.08327             -0.02763         *
 * Ni             87      0.02063             -0.01415              0.02392         *
 * Ni             88     -0.20207             -0.23384             -0.02390         *
 * Ni             89     -0.04489             -0.01970             -0.13963         *
 * Ni             90     -0.05460             -0.01116              0.00757         *
 * Ni             91      0.09466             -0.03483             -0.15591         *
 * Ni             92      0.08098              0.02399             -0.14299         *
 * Ni             93      0.08441             -0.19340             -0.04568         *
 * Ni             94     -0.26574             -0.05288              0.19339         *
 * Ni             95     -0.11394              0.01068             -0.19685         *
 * Ni             96     -0.01679             -0.03156             -0.03842         *
 * Ni             97      0.04497              0.15490              0.14000         *
 * Ni             98      0.18177             -0.16743              0.08840         *
 * Ni             99      0.06762             -0.02734             -0.03575         *
 * Ni            100      0.07274              0.03320              0.04210         *
 * Ni            101     -0.08673              0.14398              0.02849         *
 * Ni            102     -0.07372              0.15076             -0.02724         *
 * Ni            103      0.18030              0.14784             -0.17236         *
 * Ni            104     -0.09897              0.09499             -0.08971         *
 * Ni            105     -0.11022              0.05441             -0.14559         *
 * Ni            106      0.38181             -0.36323             -0.00007         *
 * Ni            107     -0.05673              0.15688             -0.04149         *
 * Ni            108      0.03573              0.13756             -0.08828         *
 * Ni            109      0.36171             -0.29174              0.02607         *
 * Ni            110      0.03898              0.14465             -0.10952         *
 * Ni            111     -0.09487             -0.03668              0.10763         *
 * Ni            112     -0.04278             -0.08600              0.13308         *
 * Ni            113      0.04879             -0.13125              0.09764         *
 * Ni            114     -0.08299             -0.09206              0.13712         *
 * Ni            115     -0.08998             -0.07843              0.09753         *
 * Ni            116     -0.22261             -0.08205              0.00417         *
 * Ni            117     -0.04165             -0.03720              0.00172         *
 * Ni            118      0.00971              0.02215             -0.07775         *
 * Ni            119      0.00167             -0.02060              0.04711         *
 * Ni            120      0.13809             -0.04239              0.06471         *
 * Ni            121      0.15666              0.03286             -0.20796         *
 * Ni            122      0.21941              0.15361              0.01564         *
 * Ni            123     -0.04325              0.08083             -0.02415         *
 * Ni            124      0.10909              0.00908              0.14878         *
 * Ni            125      0.00273              0.09993             -0.01250         *
 * Ni            126      0.05683             -0.08255              0.06479         *
 * Ni            127     -0.10459              0.09535              0.04822         *
 * Ni            128     -0.02887              0.09344              0.06730         *
 * Ni            129      0.08886             -0.04677              0.03185         *
 * Ni            130     -0.05634              0.10862             -0.11204         *
 * Ni            131      0.09049              0.15295              0.01006         *
 * Ni            132     -0.13568             -0.03440             -0.01644         *
 * Ni            133      0.15509              0.13186              0.06380         *
 * Ni            134     -0.00610              0.05249             -0.08705         *
 * Ni            135     -0.02642             -0.10786              0.02996         *
 * Ni            136     -0.01206             -0.23307             -0.00142         *
 * Ni            137      0.09875              0.00668              0.22881         *
 * Ni            138     -0.08972             -0.13697              0.02934         *
 * Ni            139     -0.01971             -0.14541              0.01062         *
 * Ni            140     -0.06216              0.05498             -0.16465         *
 * Ni            141      0.40558             -0.22006             -0.01135         *
 * Ni            142     -0.07293             -0.23854             -0.24237         *
 * Ni            143     -0.10100             -0.08938              0.18099         *
 * Ni            144      0.16066              0.12093              0.33211         *
 * Ni            145      0.03920             -0.23439             -0.09205         *
 * Ni            146     -0.21825              0.03718             -0.11985         *
 * Ni            147     -0.10253              0.09626              0.05441         *
 * Ni            148     -0.16600              0.11164              0.01103         *
 * Ni            149     -0.06308             -0.19128              0.01217         *
 * Ni            150     -0.06490              0.33889             -0.05938         *
 * Ni            151      0.05966              0.17623              0.28091         *
 * Ni            152      0.20405             -0.29645              0.43813         *
 * Ni            153      0.15130             -0.19205              0.01096         *
 * Ni            154      0.16948             -0.12501             -0.09885         *
 * Ni            155      0.01129             -0.07966             -0.13335         *
 * Ni            156      0.01006              0.10245             -0.10001         *
 * Ni            157     -0.13613              0.02932             -0.16532         *
 * Ni            158     -0.07024              0.19337             -0.15277         *
 * Ni            159     -0.19668             -0.04632             -0.01941         *
 * Ni            160     -0.11392             -0.02790             -0.02235         *
 * Ni            161      0.18389              0.01797             -0.03970         *
 * Ni            162      0.09095              0.13369              0.02818         *
 * Ni            163     -0.17567              0.06005             -0.00013         *
 * Ni            164     -0.04737              0.16421             -0.04165         *
 * Ni            165      0.12310              0.09922              0.03747         *
 * Ni            166     -0.02524              0.08098             -0.10990         *
 * Ni            167     -0.07168             -0.04259             -0.08978         *
 * Ni            168      0.07440              0.00243             -0.04025         *
 * Ni            169      0.01153             -0.09448             -0.00735         *
 * Ni            170     -0.01599              0.01779             -0.01286         *
 * Ni            171     -0.06119              0.03775              0.00194         *
 * Ni            172      0.04910             -0.01103             -0.02295         *
 * Ni            173      0.06122             -0.04827             -0.04605         *
 * Ni            174     -0.03765             -0.03386              0.03412         *
 * Ni            175     -0.04523             -0.14494              0.09207         *
 * Ni            176      0.02334              0.04993              0.10117         *
 * Ni            177     -0.18062              0.25273             -0.18477         *
 * Ni            178     -0.02323              0.09260             -0.14663         *
 * Ni            179      0.05683             -0.03674              0.02190         *
 * Ni            180     -0.14341              0.04352             -0.18852         *
 * Ni            181      0.12299             -0.04672              0.09259         *
 * Ni            182     -0.01375             -0.06526              0.17542         *
 * Ni            183      0.03074              0.06031              0.03257         *
 * Ni            184      0.08109              0.00023             -0.04188         *
 * Ni            185     -0.13912              0.11175             -0.05945         *
 * Ni            186      0.30803              0.07683             -0.33090         *
 * Ni            187     -0.18700             -0.24586             -0.05481         *
 * Ni            188     -0.20607              0.21085             -0.13788         *
 * Ni            189     -0.21060              0.28325             -0.11467         *
 * Ni            190      0.10640             -0.11175              0.02407         *
 * Ni            191     -0.15217              0.19617             -0.12899         *
 * Ni            192     -0.18539              0.13394             -0.23761         *
 *                                                                                  *
 ************************************************************************************
 
 ***************** Stress Tensor *****************
 *                                               *
 *          Cartesian components (GPa)           *
 * --------------------------------------------- *
 *             x             y             z     *
 *                                               *
 *  x     -0.959396     -0.356414      0.268780  *
 *  y     -0.356414     -0.192538     -0.635323  *
 *  z      0.268780     -0.635323     -0.445241  *
 *                                               *
 *  Pressure:    0.5324                          *
 *                                               *
 *************************************************
 EXP precond LBFGS => estimated nearest neighbor distance :  2.555       A
 EXP precond LBFGS => estimated cutoff distance :  5.110       A
 
 ************************************** Forces **************************************
 *                                                                                  *
 *                           Cartesian components (eV/A)                            *
 * -------------------------------------------------------------------------------- *
 *                         x                    y                    z              *
 *                                                                                  *
 * Al              1     -0.77847             -1.58642              0.78561         *
 * Al              2      0.04925              0.01799              0.11856         *
 * Al              3     -0.81064              0.65073              1.53662         *
 * Al              4     -0.77907             -0.08010             -0.62178         *
 * Al              5     -0.82180             -0.08168             -0.72068         *
 * Al              6     -0.79175             -0.82461             -0.01935         *
 * Al              7     -0.66710              0.91436             -0.08471         *
 * Al              8      1.50285             -0.72945             -0.75244         *
 * Al              9     -0.83946              0.92057             -1.48781         *
 * Al             10      0.77564              0.79433             -1.57335         *
 * Al             11      0.04810              0.76032              0.76498         *
 * Al             12      0.76234              0.80116             -0.07110         *
 * Al             13     -0.03027              0.68766              0.78884         *
 * Al             14     -0.80813             -0.05353             -0.77614         *
 * Al             15     -0.03851              1.53994             -0.00699         *
 * Al             16      1.17984              0.72422             -1.97722         *
 * Al             17      1.40173             -0.19337             -0.07087         *
 * Al             18     -1.43623             -0.21514             -1.41758         *
 * Al             19     -0.50473              1.32719             -0.71441         *
 * Al             20      0.14223             -0.17820              1.12961         *
 * Al             21      0.68389             -0.05214              0.64441         *
 * Al             22     -0.80679             -0.69060              1.53970         *
 * Al             23      0.73814             -0.88773             -0.01497         *
 * Al             24      0.74343             -1.50559              2.19633         *
 * Al             25     -0.01358             -2.03653             -2.06393         *
 * Al             26     -0.65818             -1.44968              0.60329         *
 * Al             27     -1.55178             -0.04069              0.04278         *
 * Al             28      0.82805              0.85298             -0.00330         *
 * Al             29      0.63167             -0.63185             -0.03143         *
 * Al             30     -0.07540              0.06461             -0.03445         *
 * Al             31      0.04232              0.00920              0.05095         *
 * Al             32      1.65901             -0.02741             -1.43675         *
 * Al             33     -0.15734             -0.69827              0.69257         *
 * Al             34     -0.79709              1.54733              0.72882         *
 * Al             35     -0.03496              0.89616             -0.71235         *
 * Al             36      0.03819             -0.07351             -0.05485         *
 * Al             37      0.05027             -0.74173             -2.28746         *
 * Al             38     -0.74899              1.52461             -0.78571         *
 * Al             39     -0.74504              0.75251             -0.09228         *
 * Al             40      2.31277             -0.83357             -0.07722         *
 * Al             41     -0.05085             -0.88021              0.73376         *
 * Al             42      0.89949              1.53724              0.79850         *
 * Al             43     -0.03706              0.17545              0.00051         *
 * Al             44      0.01599              0.78777              0.80866         *
 * Al             45     -0.01647             -2.77114             -0.01576         *
 * Al             46      2.19812             -0.22216              0.66507         *
 * Al             47     -0.15923              0.61569              2.05314         *
 * Al             48     -1.39750              1.33693              0.17884         *
 * Al             49     -1.41598             -0.65027              0.54559         *
 * Al             50     -0.04782             -0.86013              0.81164         *
 * Al             51      0.76889             -0.08189              0.80920         *
 * Al             52     -0.00243             -0.70856             -0.76740         *
 * Al             53     -0.76680             -0.02592             -0.77536         *
 * Al             54      0.04131              1.66403              0.00352         *
 * Al             55      0.86165              0.91228              1.48745         *
 * Al             56     -0.77831              0.17952              0.73910         *
 * Al             57     -0.00122              0.90176              0.74989         *
 * Al             58      0.02239             -0.75644             -0.76402         *
 * Al             59      2.17176             -1.46084             -0.58862         *
 * Al             60     -1.29589              1.38607             -1.39269         *
 * Al             61     -0.03629              0.02973              0.14130         *
 * Al             62     -0.81162             -0.03539             -0.73208         *
 * Al             63     -0.02259             -0.76680              0.79060         *
 * Al             64      0.06848             -1.54086             -0.00626         *
 * Ni              1     -0.05587              0.20556              0.11654         *
 * Ni              2     -0.06677             -0.04791              0.05758         *
 * Ni              3      0.02032             -0.10504             -0.11423         *
 * Ni              4     -0.03300             -0.01834             -0.08324         *
 * Ni              5      0.01732              0.06866              0.12611         *
 * Ni              6      0.14591              0.13540              0.23922         *
 * Ni              7      0.08489             -0.18526             -0.24110         *
 * Ni              8     -0.01043              0.12220              0.01174         *
 * Ni              9      0.00904             -0.29789              0.16798         *
 * Ni             10      0.01732             -0.04702              0.16524         *
 * Ni             11      0.14115             -0.04163             -0.08178         *
 * Ni             12      0.14417             -0.03168             -0.00326         *
 * Ni             13     -0.09988              0.15719              0.02944         *
 * Ni             14      0.10367             -0.12774              0.04264         *
 * Ni             15     -0.13810             -0.10586              0.18889         *
 * Ni             16     -0.13859              0.08973              0.11564         *
 * Ni             17     -0.07838             -0.24626              0.08784         *
 * Ni             18      0.19365              0.25907             -0.23235         *
 * Ni             19      0.14173              0.26351             -0.05648         *
 * Ni             20     -0.18140             -0.23030             -0.04679         *
 * Ni             21     -0.12016              0.07883              0.05878         *
 * Ni             22     -0.02374              0.06436              0.08682         *
 * Ni             23      0.12988             -0.11297              0.00363         *
 * Ni             24      0.13798             -0.18635             -0.06575         *
 * Ni             25     -0.03502              0.08501              0.02950         *
 * Ni             26     -0.02797             -0.15321             -0.00864         *
 * Ni             27     -0.11436              0.08082             -0.00741         *
 * Ni             28     -0.02521             -0.06706              0.13554         *
 * Ni             29      0.00423              0.20203             -0.01022         *
 * Ni             30      0.11027             -0.04194             -0.01210         *
 * Ni             31      0.02258             -0.12239             -0.04056         *
[...]
            Ni 10  -- Ni 12                  0.00        2.60643
             Al 41 -- Ni 137                 0.14        2.60643
            Ni 122 -- Ni 123                 0.04        2.60649
            Ni 68  -- Ni 119                 0.11        2.60658
            Ni 91  -- Ni 92                  0.08        2.60690
            Ni 104 -- Ni 146                 0.05        2.60701
            Ni 80  -- Ni 81                  0.04        2.60715
            Ni 181 -- Ni 182                 0.03        2.60754
             Al 10 -- Ni 12                  0.16        2.60769
             Al 35 -- Ni 108                 0.18        2.60770
             Al 54 -- Al 57                  0.26        2.60797
            Ni 155 -- Ni 180                 0.08        2.60810
            Ni 8   -- Ni 42                  0.06        2.60813
            Ni 22  -- Ni 79                  0.08        2.60832
            Ni 189 -- Ni 190                 0.13        2.60859
            Ni 177 -- Ni 182                 0.07        2.60876
            Ni 188 -- Ni 189                 0.05        2.60876
             Al 24 -- Ni 134                 0.19        2.60891
            Ni 80  -- Ni 129                 0.03        2.60969
            Ni 90  -- Ni 129                 0.07        2.61034
             Al 28 -- Ni 119                 0.17        2.61056
            Ni 151 -- Ni 166                 0.02        2.61096
            Ni 149 -- Ni 150                 0.02        2.61182
             Al 44 -- Ni 14                  0.16        2.61196
            Ni 2   -- Ni 38                  0.09        2.61200
             Al 14 -- Ni 18                  0.17        2.61229
             Al 29 -- Ni 163                 0.16        2.61236
             Al 4  -- Ni 186                 0.16        2.61327
            Ni 94  -- Ni 97                 -0.03        2.61334
            Ni 164 -- Ni 165                 0.05        2.61348
             Al 26 -- Ni 177                 0.14        2.61459
            Ni 61  -- Ni 114                 0.01        2.61467
            Ni 100 -- Ni 147                -0.01        2.61472
             Al 48 -- Al 61                  0.25        2.61479
            Ni 88  -- Ni 140                 0.05        2.61514
             Al 42 -- Ni 123                 0.18        2.61525
            Ni 139 -- Ni 187                 0.09        2.61529
             Al 43 -- Ni 87                  0.17        2.61550
             Al 42 -- Ni 73                  0.17        2.61552
             Al 40 -- Ni 88                  0.17        2.61555
            Ni 151 -- Ni 153                -0.02        2.61563
             Al 5  -- Ni 187                 0.16        2.61582
            Ni 6   -- Ni 43                  0.11        2.61585
            Ni 106 -- Ni 107                 0.10        2.61595
             Al 55 -- Ni 18                  0.19        2.61614
             Al 36 -- Ni 94                  0.18        2.61614
            Ni 37  -- Ni 40                  0.07        2.61619
            Ni 107 -- Ni 109                 0.11        2.61639
            Ni 29  -- Ni 35                  0.05        2.61648
            Ni 181 -- Ni 192                 0.07        2.61758
            Ni 115 -- Ni 130                -0.01        2.61763
            Ni 142 -- Ni 184                 0.12        2.61765
             Al 14 -- Ni 8                   0.15        2.61766
            Ni 55  -- Ni 91                  0.09        2.61845
            Ni 60  -- Ni 99                  0.01        2.61863
            Ni 173 -- Ni 175                 0.03        2.61879
            Ni 101 -- Ni 104                 0.01        2.61909
            Ni 54  -- Ni 66                  0.00        2.61920
             Al 39 -- Ni 89                  0.15        2.61969
             Al 61 -- Ni 18                  0.19        2.61982
             Al 35 -- Ni 104                 0.16        2.62005
             Al 52 -- Ni 33                  0.16        2.62028
             Al 43 -- Ni 68                  0.16        2.62038
            Ni 24  -- Ni 37                  0.02        2.62039
            Ni 101 -- Ni 138                -0.07        2.62039
            Ni 136 -- Ni 140                 0.04        2.62131
            Ni 5   -- Ni 148                 0.00        2.62149
            Ni 85  -- Ni 127                -0.01        2.62150
            Ni 146 -- Ni 161                 0.05        2.62167
            Ni 60  -- Ni 103                 0.07        2.62209
            Ni 26  -- Ni 41                  0.01        2.62250
            Ni 8   -- Ni 149                 0.01        2.62287
             Al 42 -- Ni 50                  0.15        2.62347
             Al 14 -- Al 62                  0.26        2.62347
            Ni 42  -- Ni 186                -0.01        2.62367
             Al 23 -- Ni 84                  0.15        2.62439
             Al 49 -- Ni 97                  0.17        2.62448
             Al 52 -- Ni 22                  0.17        2.62506
             Al 51 -- Ni 23                  0.18        2.62551
             Al 33 -- Ni 106                 0.19        2.62559
            Ni 9   -- Ni 154                 0.07        2.62582
            Ni 71  -- Ni 73                  0.05        2.62583
            Ni 131 -- Ni 182                 0.02        2.62591
            Ni 131 -- Ni 132                -0.05        2.62596
             Al 34 -- Ni 55                  0.16        2.62622
             Al 61 -- Ni 7                   0.17        2.62663
            Ni 16  -- Ni 29                  0.02        2.62695
             Al 13 -- Ni 153                 0.15        2.62724
            Ni 46  -- Ni 95                  0.03        2.62747
             Al 7  -- Ni 144                 0.17        2.62765
             Al 49 -- Ni 107                 0.19        2.62770
            Ni 97  -- Ni 99                  0.05        2.62771
            Ni 59  -- Ni 93                  0.12        2.62796
            Ni 109 -- Ni 123                 0.07        2.62799
            Ni 71  -- Ni 122                 0.06        2.62800
            Ni 100 -- Ni 103                 0.05        2.62804
            Ni 115 -- Ni 174                 0.02        2.62818
            Ni 154 -- Ni 189                -0.02        2.62899
             Al 52 -- Al 53                  0.25        2.62910
             Al 61 -- Ni 56                  0.14        2.62973
             Al 3  -- Ni 188                 0.14        2.63060
             Al 48 -- Ni 59                  0.13        2.63085
             Al 52 -- Ni 23                  0.16        2.63123
            Ni 106 -- Ni 109                 0.04        2.63172
             Al 6  -- Ni 185                 0.15        2.63173
            Ni 66  -- Ni 120                 0.10        2.63182
            Ni 164 -- Ni 166                 0.00        2.63196
             Al 38 -- Al 39                  0.25        2.63233
            Ni 84  -- Ni 94                 -0.05        2.63332
             Al 5  -- Ni 185                 0.17        2.63359
            Ni 20  -- Ni 155                -0.05        2.63544
             Al 11 -- Al 12                  0.24        2.63551
             Al 63 -- Ni 5                   0.14        2.63576
             Al 50 -- Ni 186                 0.16        2.63581
             Al 7  -- Al 12                  0.26        2.63590
            Ni 138 -- Ni 139                 0.04        2.63730
            Ni 8   -- Ni 45                  0.03        2.63778
            Ni 81  -- Ni 84                  0.03        2.63891
             Al 12 -- Ni 153                 0.15        2.63896
             Al 51 -- Ni 185                 0.17        2.63915
            Ni 10  -- Ni 20                 -0.06        2.63980
            Ni 6   -- Ni 8                   0.08        2.63990
            Ni 188 -- Ni 192                 0.06        2.63993
            Ni 151 -- Ni 163                -0.03        2.64031
            Ni 6   -- Ni 45                  0.07        2.64062
            Ni 81  -- Ni 134                 0.04        2.64105
             Al 44 -- Ni 52                  0.16        2.64113
             Al 38 -- Al 53                  0.26        2.64144
            Ni 108 -- Ni 141                 0.07        2.64221
            Ni 93  -- Ni 108                -0.04        2.64317
            Ni 106 -- Ni 152                 0.02        2.64372
             Al 3  -- Al 50                  0.24        2.64387
            Ni 153 -- Ni 166                 0.03        2.64410
            Ni 159 -- Ni 163                 0.04        2.64442
             Al 35 -- Ni 105                 0.17        2.64446
            Ni 9   -- Ni 21                  0.02        2.64521
            Ni 101 -- Ni 135                -0.00        2.64591
            Ni 135 -- Ni 147                -0.02        2.64595
             Al 16 -- Al 23                  0.24        2.64597
             Al 8  -- Ni 163                 0.15        2.64632
             Al 22 -- Ni 88                  0.17        2.64664
            Ni 50  -- Ni 60                  0.03        2.64763
            Ni 51  -- Ni 102                 0.02        2.64772
            Ni 72  -- Ni 73                  0.04        2.64786
            Ni 109 -- Ni 151                 0.05        2.64825
            Ni 17  -- Ni 19                  0.05        2.64877
            Ni 55  -- Ni 58                  0.07        2.64980
            Ni 15  -- Ni 158                 0.03        2.65058
             Al 58 -- Ni 6                   0.18        2.65144
             Al 63 -- Ni 15                  0.13        2.65246
            Ni 88  -- Ni 92                  0.03        2.65290
             Al 62 -- Al 63                  0.23        2.65408
             Al 2  -- Al 20                  0.17        2.65518
             Al 39 -- Ni 88                  0.15        2.65565
            Ni 81  -- Ni 132                 0.04        2.65638
            Ni 50  -- Ni 51                  0.09        2.65653
             Al 1  -- Al 26                  0.21        2.65789
             Al 7  -- Ni 157                 0.13        2.65854
             Al 20 -- Al 24                  0.22        2.65896
             Al 1  -- Ni 141                 0.17        2.66021
            Ni 42  -- Ni 185                 0.08        2.66065
             Al 48 -- Al 49                  0.27        2.66114
             Al 52 -- Ni 34                  0.14        2.66121
            Ni 106 -- Ni 108                 0.04        2.66259
             Al 2  -- Al 13                  0.19        2.66294
             Al 50 -- Ni 45                  0.15        2.66489
             Al 12 -- Ni 154                 0.15        2.66495
             Al 63 -- Al 64                  0.22        2.66523
             Al 23 -- Ni 98                  0.13        2.66725
            Ni 144 -- Ni 145                 0.06        2.66767
             Al 17 -- Al 32                  0.21        2.66768
             Al 22 -- Ni 51                  0.13        2.66914
            Ni 103 -- Ni 143                 0.04        2.66936
             Al 33 -- Ni 116                 0.14        2.66937
             Al 34 -- Al 35                  0.22        2.66942
             Al 58 -- Al 60                  0.24        2.67089
             Al 50 -- Ni 42                  0.13        2.67094
            Ni 55  -- Ni 59                  0.08        2.67160
             Al 54 -- Al 60                  0.23        2.67180
            Ni 133 -- Ni 134                -0.06        2.67231
            Ni 36  -- Ni 99                 -0.01        2.67333
             Al 43 -- Ni 73                  0.17        2.67344
             Al 3  -- Al 13                  0.19        2.67425
            Ni 144 -- Ni 147                 0.05        2.67427
             Al 48 -- Ni 6                   0.12        2.67431
            Ni 151 -- Ni 152                 0.01        2.67431
            Ni 105 -- Ni 152                 0.10        2.67484
             Al 22 -- Al 39                  0.23        2.67485
             Al 54 -- Ni 1                   0.13        2.67497
            Ni 133 -- Ni 182                -0.03        2.67502
            Ni 53  -- Ni 60                 -0.01        2.67700
             Al 44 -- Al 63                  0.23        2.67784
             Al 15 -- Ni 138                 0.14        2.67832
             Al 4  -- Al 15                  0.25        2.67941
            Ni 36  -- Ni 53                  0.03        2.67943
            Ni 69  -- Ni 70                  0.01        2.67960
             Al 8  -- Ni 18                  0.15        2.68030
             Al 7  -- Ni 9                   0.16        2.68033
             Al 58 -- Al 59                  0.24        2.68071
             Al 1  -- Al 4                   0.23        2.68119
             Al 11 -- Al 13                  0.20        2.68349
             Al 61 -- Al 62                  0.25        2.68403
             Al 33 -- Ni 120                 0.13        2.68424
            Ni 69  -- Ni 73                 -0.01        2.68463
             Al 54 -- Ni 9                   0.15        2.68504
            Ni 1   -- Ni 3                  -0.02        2.68738
             Al 5  -- Al 6                   0.22        2.68743
             Al 59 -- Ni 46                  0.13        2.68791
             Al 7  -- Al 57                  0.22        2.68993
            Ni 19  -- Ni 73                  0.04        2.69292
            Ni 14  -- Ni 18                  0.05        2.69305
             Al 23 -- Al 24                  0.23        2.69324
             Al 19 -- Al 20                  0.26        2.69330
             Al 14 -- Ni 7                   0.13        2.69353
             Al 20 -- Al 26                  0.25        2.69472
             Al 29 -- Al 33                  0.23        2.69636
            Ni 107 -- Ni 123                 0.05        2.69665
             Al 27 -- Al 30                  0.22        2.69844
             Al 39 -- Ni 137                 0.12        2.70148
             Al 22 -- Al 34                  0.22        2.70377
            Ni 110 -- Ni 111                 0.03        2.70603
             Al 21 -- Ni 90                  0.12        2.70650
             Al 57 -- Ni 9                   0.12        2.70755
             Al 15 -- Ni 185                 0.13        2.70801
             Al 1  -- Al 20                  0.17        2.70920
             Al 32 -- Ni 191                 0.11        2.70929
             Al 33 -- Al 35                  0.21        2.70974
             Al 48 -- Al 60                  0.19        2.70995
             Al 58 -- Ni 7                   0.12        2.71070
            Ni 103 -- Ni 135                -0.04        2.71072
             Al 16 -- Al 17                  0.21        2.71078
             Al 18 -- Al 26                  0.20        2.71179
             Al 29 -- Al 30                  0.22        2.71267
             Al 11 -- Al 17                  0.19        2.71589
            Ni 142 -- Ni 191                 0.06        2.71614
             Al 40 -- Al 41                  0.22        2.71754
             Al 27 -- Ni 178                 0.11        2.71842
             Al 10 -- Al 57                  0.20        2.71855
             Al 28 -- Al 29                  0.22        2.71904
             Al 21 -- Al 34                  0.22        2.72002
             Al 46 -- Al 54                  0.20        2.72004
             Al 18 -- Ni 141                 0.13        2.72355
             Al 57 -- Al 64                  0.20        2.72432
             Al 18 -- Al 19                  0.16        2.72608
             Al 49 -- Ni 111                 0.14        2.72652
             Al 6  -- Al 51                  0.21        2.72861
            Ni 17  -- Ni 73                 -0.00        2.72964
            Ni 150 -- Ni 152                 0.00        2.73222
             Al 3  -- Al 4                   0.19        2.73270
             Al 9  -- Al 56                  0.19        2.73306
             Al 2  -- Al 11                  0.17        2.73456
             Al 5  -- Al 15                  0.21        2.73466
             Al 64 -- Ni 11                  0.12        2.73532
             Al 45 -- Al 49                  0.21        2.73634
             Al 8  -- Al 14                  0.20        2.73824
             Al 27 -- Ni 132                 0.10        2.74169
             Al 18 -- Al 25                  0.23        2.74191
             Al 16 -- Al 19                  0.22        2.74320
             Al 12 -- Al 32                  0.19        2.74328
             Al 62 -- Ni 18                  0.11        2.74365
             Al 42 -- Al 46                  0.17        2.74407
             Al 17 -- Al 19                  0.18        2.74739
             Al 46 -- Al 59                  0.20        2.74927
             Al 17 -- Al 20                  0.20        2.74929
             Al 47 -- Al 48                  0.23        2.75003
             Al 1  -- Al 2                   0.17        2.75179
             Al 2  -- Al 3                   0.17        2.75210
            Ni 105 -- Ni 141                 0.03        2.75791
             Al 38 -- Al 41                  0.19        2.76124
             Al 42 -- Al 47                  0.18        2.76185
             Al 2  -- Al 17                  0.16        2.76449
            Ni 97  -- Ni 98                  0.04        2.76631
             Al 21 -- Al 37                  0.18        2.78061
             Al 47 -- Al 49                  0.20        2.79198
             Al 18 -- Al 20                  0.22        2.79336
             Al 1  -- Al 3                   0.15        2.79488
             Al 45 -- Al 59                  0.17        2.79676
             Al 10 -- Al 64                  0.17        2.79931
             Al 40 -- Al 53                  0.17        2.80203
             Al 8  -- Al 9                   0.17        2.80445
             Al 16 -- Al 25                  0.17        2.80479
             Al 25 -- Al 26                  0.17        2.80991
             Al 8  -- Al 55                  0.16        2.82161
             Al 45 -- Al 60                  0.19        2.82576
             Al 20 -- Al 25                  0.23        2.83686
             Al 9  -- Al 55                  0.15        2.83981
             Al 46 -- Al 47                  0.13        2.84023
             Al 11 -- Al 32                  0.14        2.84333
             Al 22 -- Al 37                  0.17        2.84546
             Al 16 -- Al 20                  0.24        2.85005
             Al 45 -- Al 46                  0.16        2.85716
             Al 38 -- Al 40                  0.13        2.87647
             Al 46 -- Al 60                  0.17        2.88878
             Al 45 -- Al 48                  0.12        2.90194
             Al 34 -- Al 37                  0.11        2.91118
             Al 24 -- Al 25                  0.11        2.93634
             Al 45 -- Al 47                  0.11        2.97269
             Al 59 -- Al 60                  0.12        2.98907
======================================================================
 

Writing analysis data to castep.castep_bin

Writing model to castep.check
 
 A BibTeX formatted list of references used in this run has been written to 
 castep.bib
 
Initialisation time =     13.72 s
Calculation time    =  28922.87 s
Finalisation time   =      3.01 s
Total time          =  28939.60 s
Peak Memory Use     = 8242700 kB
  
Overall parallel efficiency rating: Good (78%)                                  
  
Data was distributed by:-
G-vector (48-way); efficiency rating: Good (79%)                                
