 +-------------------------------------------------+
 |                                                 |
 |      CCC   AA    SSS  TTTTT  EEEEE  PPPP        |
 |     C     A  A  S       T    E      P   P       |
 |     C     AAAA   SS     T    EEE    PPPP        |
 |     C     A  A     S    T    E      P           |
 |      CCC  A  A  SSS     T    EEEEE  P           |
 |                                                 |
 +-------------------------------------------------+
 |                                                 |
 | Welcome to Academic Release CASTEP version 20.11|          
 | Ab Initio Total Energy Program                  |
 |                                                 |
 | Authors:                                        |
 | M. Segall, M. Probert, C. Pickard, P. Hasnip,   |
 | S. Clark, K. Refson, J. R. Yates, M. Payne      |
 |                                                 |
 | Contributors:                                   |
 | P. Lindan, P. Haynes, J. White, V. Milman,      |
 | N. Govind, M. Gibson, P. Tulip, V. Cocula,      |
 | B. Montanari, D. Quigley, M. Glover,            |
 | L. Bernasconi, A. Perlov, M. Plummer,           |
 | E. McNellis, J. Meyer, J. Gale, D. Jochym       |
 | J. Aarons, B. Walker, R. Gillen, D. Jones       |
 | T. Green, I. J. Bush, C. J. Armstrong,          |
 | E. J. Higgins, E. L. Brown, M. S. McFly,        |
 | J. Wilkins, B-C. Shih, P. J. P. Byrne,          |
 | R. J. Maurer, J. C. Womack, J. Dziedzic,        |
 | J. R. Kermode, A. Bartok-Partay                 |
 |                                                 |
 | Copyright (c) 2000 - 2020                       |
 |                                                 |
 |     Distributed under license from Cambridge    |
 |     Enterprise for academic use only.           |
 |                                                 |
 | Please cite                                     |
 |                                                 |
 |     "First principles methods using CASTEP"     |
 |                                                 |
 |         Zeitschrift fuer Kristallographie       |
 |           220(5-6) pp. 567-570 (2005)           |
 |                                                 |
 | S. J. Clark, M. D. Segall, C. J. Pickard,       |
 | P. J. Hasnip, M. J. Probert, K. Refson,         |
 | M. C. Payne                                     |
 |                                                 |
 |       in all publications arising from          |
 |              your use of CASTEP                 |
 |                                                 |
 +-------------------------------------------------+
 |                                                 |
 |              http://www.castep.org              |
 |                                                 |
 +-------------------------------------------------+
 
 
 
 Compiled for linux_x86_64_ifort on Wed, 25 Aug 2021 18:50:38 +0100
 from code version e772bf432+  HEAD  Sat Apr 3 17:41:32 2021 +0100
 Compiler: Intel Fortran 19.0.5.281; Optimisation: fast
 MATHLIBS: Intel MKL(2019.0.5) (LAPACK version 3.7.0)
 FFT Lib : mkl
 Fundamental constants values: CODATA 2014
 
 Run started: Thu, 09 Mar 2023 19:56:11 +0000
 
 Atomic calculation performed for Al: 1s2 2s2 2p6 3s2 3p1
 
 Converged in 52 iterations to an ae energy of -6606.982 eV
 
   ============================================================                
   | Pseudopotential Report - Date of generation  9-03-2023   |                
   ------------------------------------------------------------                
   | Element: Al Ionic charge:  3.00 Level of theory: RPBE    |                
   | Atomic Solver: Koelling-Harmon                           |                
   |                                                          |                
   |               Reference Electronic Structure             |                
   |         Orbital         Occupation         Energy        |                
   |            3s              2.000           -0.284        |                
   |            3p              1.000           -0.100        |                
   |                                                          |                
   |                 Pseudopotential Definition               |                
   |        Beta     l      e      Rc     scheme   norm       |                
   |          1      0   -0.284   2.192     qc      0         |                
   |          2      0    0.250   2.192     qc      0         |                
   |          3      1   -0.100   2.192     qc      0         |                
   |          4      1    0.250   2.192     qc      0         |                
   |          5      2    0.000   2.000     qc      0         |                
   |          6      2    0.250   2.000     qc      0         |                
   |         loc     3    0.000   2.192     pn      0         |                
   |                                                          |                
   | Augmentation charge Rinner = 1.398                       |                
   | Partial core correction Rc = 1.398                       |                
   ------------------------------------------------------------                
   | "3|2.2|2.2|1.4|4|5|5|30:31:32U2U2"                       |                
   ------------------------------------------------------------                
   |      Author: Chris J. Pickard, Cambridge University      |                
   ============================================================                
 
 Atomic calculation performed for Ni: 1s2 2s2 2p6 3s2 3p6 3d8 4s2
 
 Converged in 109 iterations to an ae energy of -41381.414 eV
 
   ============================================================                
   | Pseudopotential Report - Date of generation  9-03-2023   |                
   ------------------------------------------------------------                
   | Element: Ni Ionic charge: 10.00 Level of theory: RPBE    |                
   | Atomic Solver: Koelling-Harmon                           |                
   |                                                          |                
   |               Reference Electronic Structure             |                
   |         Orbital         Occupation         Energy        |                
   |            3d              8.000           -0.324        |                
   |            4s              2.000           -0.204        |                
   |                                                          |                
   |                 Pseudopotential Definition               |                
   |        Beta     l      e      Rc     scheme   norm       |                
   |          1      0   -0.204   2.401     qc      0         |                
   |          2      0    0.250   2.401     qc      0         |                
   |          3      1    0.000   2.401     qc      0         |                
   |          4      1    0.250   2.401     qc      0         |                
   |          5      2   -0.324   1.999     qc      0         |                
   |          6      2    0.250   1.999     qc      0         |                
   |         loc     3    0.000   2.401     pn      0         |                
   |                                                          |                
   | Augmentation charge Rinner = 1.001                       |                
   | Partial core correction Rc = 1.001                       |                
   ------------------------------------------------------------                
   | "3|2.4|2.4|1.0|8|9|10|40:41:32U2U2(qc=5.5)"              |                
   ------------------------------------------------------------                
   |      Author: Chris J. Pickard, Cambridge University      |                
   ============================================================                
 
 Pseudo atomic calculation performed for Al 3s2 3p1
 
 Converged in 13 iterations to a total energy of -107.6592 eV
 
 Pseudo atomic calculation performed for Ni 3d8 4s2
 
 Converged in 41 iterations to a total energy of -1369.7891 eV
 Calculation parallelised over 48 processes.
 Data is distributed by G-vector(48-way)

 ************************************ Title ************************************
 

 ***************************** General Parameters ******************************
  
 output verbosity                               : normal  (1)
 write checkpoint data to                       : castep.check
 type of calculation                            : geometry optimization
 stress calculation                             : off
 density difference calculation                 : off
 electron localisation func (ELF) calculation   : off
 Hirshfeld analysis                             : off
 molecular orbital projected DOS                : off
 deltaSCF calculation                           : off
 unlimited duration calculation
 timing information                             : on
 memory usage estimate                          : on
 write extra output files                       : on
 write final potential to formatted file        : off
 write final density to formatted file          : off
 write BibTeX reference list                    : on
 write OTFG pseudopotential files               : on
 write electrostatic potential file             : on
 write bands file                               : on
 checkpoint writing                             : both castep_bin and check files
  
 output         length unit                     : A
 output           mass unit                     : amu
 output           time unit                     : ps
 output         charge unit                     : e
 output           spin unit                     : hbar/2
 output         energy unit                     : eV
 output          force unit                     : eV/A
 output       velocity unit                     : A/ps
 output       pressure unit                     : GPa
 output     inv_length unit                     : 1/A
 output      frequency unit                     : cm-1
 output force constant unit                     : eV/A**2
 output         volume unit                     : A**3
 output   IR intensity unit                     : (D/A)**2/amu
 output         dipole unit                     : D
 output         efield unit                     : eV/A/e
 output        entropy unit                     : J/mol/K
 output    efield chi2 unit                     : pm/V
  
 wavefunctions paging                           : none
 random number generator seed                   : randomised (195611712)
 data distribution                              : optimal for this architecture
 optimization strategy                          : maximize speed(+++)

 *********************** Exchange-Correlation Parameters ***********************
  
 using functional                               : revised Perdew Burke Ernzerhof
 relativistic treatment                         : Koelling-Harmon
 DFT+D: Semi-empirical dispersion correction    : off

 ************************* Pseudopotential Parameters **************************
  
 pseudopotential representation                 : reciprocal space
 <beta|phi> representation                      : reciprocal space
 spin-orbit coupling                            : off

 **************************** Basis Set Parameters *****************************
  
 plane wave basis set cut-off                   :   900.0000   eV
 size of standard grid                          :     1.7500
 size of   fine   gmax                          :    26.8966   1/A
 finite basis set correction                    : none

 **************************** Electronic Parameters ****************************
  
 number of  electrons                           :  2088.    
 net charge of system                           :  0.000    
 treating system as non-spin-polarized
 number of bands                                :       1156

 ********************* Electronic Minimization Parameters **********************
  
 Method: Treating system as metallic with density mixing treatment of electrons,
         and number of  SD  steps               :          1
         and number of  CG  steps               :          4
  
 total energy / atom convergence tol.           : 0.1000E-05   eV
 eigen-energy convergence tolerance             : 0.2206E-06   eV
 max force / atom convergence tol.              : ignored
 convergence tolerance window                   :          3   cycles
 max. number of SCF cycles                      :        200
 number of fixed-spin iterations                :         10
 smearing scheme                                : Gaussian
 smearing width                                 : 0.2000       eV
 Fermi energy convergence tolerance             : 0.2721E-13   eV
 periodic dipole correction                     : NONE
 periodically dump wavefunctions to             : castep.wvfn
 dump wavefunctions every                       :          1   SCF cycles

 ************************** Density Mixing Parameters **************************
  
 density-mixing scheme                          : Pulay
 max. length of mixing history                  :         20
 charge density mixing amplitude                : 0.8000    
 cut-off energy for mixing                      :  900.0       eV

 *********************** Population Analysis Parameters ************************
  
 Population analysis with cutoff                :  3.000       A
 Population analysis output                     : summary and pdos components

 ********************** Geometry Optimization Parameters ***********************
  
 optimization method                            : LBFGS
 max. no. of LBFGS updates                      : unbounded
 variable cell method                           : fixed basis quality
 max. number of steps                           :         30
 estimated bulk modulus                         :  500.0       GPa
 estimated <frequency>                          :  1668.       cm-1
 geom line minimiser                            : on
 with line minimiser tolerance                  :     0.4000
 total energy convergence tolerance             : 0.2000E-04   eV/atom
        max ionic |force| tolerance             : 0.5000E-01   eV/A
 max ionic |displacement| tolerance             : 0.1000E-02   A
   max |stress component| tolerance             : 0.1000       GPa
 convergence tolerance window                   :          2   steps
 backup results every                           :          5   steps
 write geom trajectory file                     : on

 *******************************************************************************
  
 
                           -------------------------------
                                      Unit Cell
                           -------------------------------
        Real Lattice(A)                      Reciprocal Lattice(1/A)
    14.4648280     0.0000000     0.0000000        0.434376773   0.000000000   0.000000000
     0.0000000    14.4648280     0.0000000        0.000000000   0.434376773   0.000000000
     0.0000000     0.0000000    14.4648280        0.000000000   0.000000000   0.434376773
 
                       Lattice parameters(A)       Cell Angles
                    a =     14.464828          alpha =   90.000000
                    b =     14.464828          beta  =   90.000000
                    c =     14.464828          gamma =   90.000000
 
                       Current cell volume =          3026.494030       A**3
                                   density =             4.253712   AMU/A**3
                                           =             7.063455     g/cm^3
 
                           -------------------------------
                                     Cell Contents
                           -------------------------------
                         Total number of ions in cell =  255
                      Total number of species in cell =    2
                        Max number of any one species =  189
 
            xxxxxxxxxxxxxxxxxxxxxxxxxxxxxxxxxxxxxxxxxxxxxxxxxxxxxxxxxxxx
            x  Element    Atom        Fractional coordinates of atoms  x
            x            Number           u          v          w      x
            x----------------------------------------------------------x
            x  Al           1         0.059362   0.062839   0.815181   x 
            x  Al           2         0.060343   0.312249   0.814774   x 
            x  Al           3         0.060684   0.562383   0.814458   x 
            x  Al           4         0.059970   0.813077   0.814601   x 
            x  Al           5         0.059309   0.063391   0.064389   x 
            x  Al           6         0.060286   0.312416   0.065065   x 
            x  Al           7         0.058896   0.561996   0.064583   x 
            x  Al           8         0.058094   0.812884   0.063394   x 
            x  Al           9         0.058429   0.063808   0.313637   x 
            x  Al          10         0.060569   0.313064   0.314396   x 
            x  Al          11         0.060093   0.562231   0.314655   x 
            x  Al          12         0.057507   0.812991   0.314192   x 
            x  Al          13         0.058375   0.063467   0.564965   x 
            x  Al          14         0.062011   0.313203   0.565195   x 
            x  Al          15         0.062356   0.561574   0.564475   x 
            x  Al          16         0.058720   0.813354   0.564842   x 
            x  Al          17         0.799262   0.812522   0.562635   x 
            x  Al          18         0.935995   0.943943   0.561138   x 
            x  Al          19         0.547532   0.929682   0.933221   x 
            x  Al          20         0.567356   0.810749   0.563271   x 
            x  Al          21         0.549877   0.566785   0.559294   x 
            x  Al          22         0.687156   0.933478   0.808801   x 
            x  Al          23         0.426863   0.817815   0.686867   x 
            x  Al          24         0.936938   0.689966   0.562876   x 
            x  Al          25         0.685106   0.446673   0.818448   x 
            x  Al          26         0.550122   0.435399   0.689772   x 
            x  Al          27         0.308641   0.572972   0.563422   x 
            x  Al          28         0.817255   0.438984   0.682083   x 
            x  Al          29         0.683680   0.189447   0.575617   x 
            x  Al          30         0.309441   0.301587   0.565566   x 
            x  Al          31         0.310793   0.436535   0.698653   x 
            x  Al          32         0.942294   0.940958   0.323042   x 
            x  Al          33         0.434146   0.810375   0.432610   x 
            x  Al          34         0.304094   0.942971   0.438345   x 
            x  Al          35         0.932017   0.560736   0.432355   x 
            x  Al          36         0.687936   0.563632   0.431346   x 
            x  Al          37         0.304585   0.571106   0.308746   x 
            x  Al          38         0.925449   0.316173   0.437297   x 
            x  Al          39         0.680604   0.320377   0.434520   x 
            x  Al          40         0.449651   0.439519   0.317071   x 
            x  Al          41         0.306455   0.434542   0.436808   x 
            x  Al          42         0.930161   0.319754   0.190311   x 
            x  Al          43         0.926516   0.176994   0.314458   x 
            x  Al          44         0.682085   0.058443   0.435610   x 
            x  Al          45         0.437214   0.188009   0.326472   x 
            x  Al          46         0.931871   0.806393   0.936558   x 
            x  Al          47         0.812745   0.935897   0.189922   x 
            x  Al          48         0.686054   0.929348   0.058489   x 
            x  Al          49         0.302820   0.932678   0.189369   x 
            x  Al          50         0.814773   0.696533   0.196745   x 
            x  Al          51         0.942493   0.559128   0.192353   x 
            x  Al          52         0.686620   0.690497   0.064891   x 
            x  Al          53         0.560009   0.307368   0.061605   x 
            x  Al          54         0.690439   0.447299   0.066387   x 
            x  Al          55         0.429252   0.311163   0.185704   x 
            x  Al          56         0.929417   0.178535   0.057640   x 
            x  Al          57         0.560826   0.069334   0.060121   x 
            x  Al          58         0.433133   0.062487   0.190783   x 
            x  Al          59         0.932060   0.940727   0.809890   x 
            x  Al          60         0.936356   0.565384   0.939410   x 
            x  Al          61         0.688239   0.685108   0.807930   x 
            x  Al          62         0.553076   0.688401   0.942360   x 
            x  Al          63         0.425799   0.682359   0.813683   x 
            x  Al          64         0.929490   0.182370   0.816557   x 
            x  Al          65         0.926656   0.182946   0.567321   x 
            x  Al          66         0.692220   0.305758   0.934968   x 
            x  Ni           1         0.061512   0.187651   0.940061   x 
            x  Ni           2         0.185263   0.062713   0.939956   x 
            x  Ni           3         0.184694   0.186865   0.815370   x 
            x  Ni           4         0.061539   0.436991   0.940127   x 
            x  Ni           5         0.185026   0.311932   0.940585   x 
            x  Ni           6         0.184150   0.436837   0.816268   x 
            x  Ni           7         0.060840   0.687576   0.939215   x 
            x  Ni           8         0.183850   0.562056   0.941367   x 
            x  Ni           9         0.184683   0.687822   0.815449   x 
            x  Ni          10         0.060934   0.938134   0.939378   x 
            x  Ni          11         0.184525   0.813032   0.939205   x 
            x  Ni          12         0.185049   0.938404   0.815100   x 
            x  Ni          13         0.061886   0.188285   0.189294   x 
            x  Ni          14         0.185028   0.063233   0.189102   x 
            x  Ni          15         0.185741   0.187623   0.064896   x 
            x  Ni          16         0.061669   0.436740   0.189458   x 
            x  Ni          17         0.187651   0.312380   0.189550   x 
            x  Ni          18         0.185542   0.437032   0.065264   x 
            x  Ni          19         0.059396   0.687752   0.188299   x 
            x  Ni          20         0.183319   0.563089   0.187912   x 
            x  Ni          21         0.183219   0.687676   0.063513   x 
            x  Ni          22         0.061023   0.938486   0.188926   x 
            x  Ni          23         0.181263   0.812389   0.188419   x 
            x  Ni          24         0.183313   0.937899   0.063459   x 
            x  Ni          25         0.061020   0.188208   0.439124   x 
            x  Ni          26         0.182644   0.063976   0.438699   x 
            x  Ni          27         0.185114   0.188465   0.314118   x 
            x  Ni          28         0.064225   0.437339   0.440683   x 
            x  Ni          29         0.185666   0.311095   0.439752   x 
            x  Ni          30         0.185810   0.438088   0.313398   x 
            x  Ni          31         0.060607   0.687827   0.439596   x 
            x  Ni          32         0.186742   0.563510   0.438921   x 
            x  Ni          33         0.181001   0.689097   0.313049   x 
            x  Ni          34         0.060460   0.938677   0.439118   x 
            x  Ni          35         0.182584   0.814395   0.439054   x 
            x  Ni          36         0.182257   0.938447   0.313967   x 
            x  Ni          37         0.061287   0.188006   0.690490   x 
            x  Ni          38         0.183965   0.062764   0.690320   x 
            x  Ni          39         0.183342   0.185916   0.565223   x 
            x  Ni          40         0.063763   0.437139   0.689080   x 
            x  Ni          41         0.187137   0.311400   0.690678   x 
            x  Ni          42         0.193010   0.436994   0.566236   x 
            x  Ni          43         0.062029   0.687703   0.690186   x 
            x  Ni          44         0.186412   0.562730   0.689405   x 
            x  Ni          45         0.182768   0.689660   0.564244   x 
            x  Ni          46         0.061158   0.938198   0.689938   x 
            x  Ni          47         0.184534   0.814305   0.688826   x 
            x  Ni          48         0.182797   0.939675   0.564000   x 
            x  Ni          49         0.309867   0.186592   0.939186   x 
            x  Ni          50         0.433872   0.062565   0.939008   x 
            x  Ni          51         0.434817   0.186229   0.814408   x 
            x  Ni          52         0.308352   0.062963   0.814224   x 
            x  Ni          53         0.561130   0.187230   0.935314   x 
            x  Ni          54         0.681200   0.056057   0.936317   x 
            x  Ni          55         0.685970   0.186187   0.810830   x 
            x  Ni          56         0.558219   0.059502   0.814034   x 
            x  Ni          57         0.808998   0.183001   0.936465   x 
            x  Ni          58         0.935337   0.058150   0.936862   x 
            x  Ni          59         0.807432   0.059105   0.812090   x 
            x  Ni          60         0.309834   0.437451   0.939344   x 
            x  Ni          61         0.434971   0.311730   0.940614   x 
            x  Ni          62         0.435510   0.438669   0.818346   x 
            x  Ni          63         0.309088   0.310875   0.816740   x 
            x  Ni          64         0.564062   0.437086   0.942275   x 
            x  Ni          65         0.811444   0.316476   0.812787   x 
            x  Ni          66         0.560874   0.314503   0.816679   x 
            x  Ni          67         0.810277   0.441753   0.938979   x 
            x  Ni          68         0.936950   0.438355   0.812069   x 
            x  Ni          69         0.308588   0.686361   0.941424   x 
            x  Ni          70         0.433234   0.562321   0.941896   x 
            x  Ni          71         0.305815   0.561902   0.815934   x 
            x  Ni          72         0.685720   0.569194   0.940374   x 
            x  Ni          73         0.557600   0.565240   0.814753   x 
            x  Ni          74         0.810909   0.687090   0.937213   x 
            x  Ni          75         0.935841   0.688253   0.809426   x 
            x  Ni          76         0.310308   0.937924   0.940060   x 
            x  Ni          77         0.428832   0.809626   0.937797   x 
            x  Ni          78         0.430342   0.936709   0.812071   x 
            x  Ni          79         0.305931   0.812641   0.813616   x 
            x  Ni          80         0.554886   0.806934   0.810943   x 
            x  Ni          81         0.682746   0.808100   0.933681   x 
            x  Ni          82         0.555147   0.686554   0.688747   x 
            x  Ni          83         0.683134   0.810237   0.688634   x 
            x  Ni          84         0.809690   0.932768   0.935990   x 
            x  Ni          85         0.811333   0.811144   0.808955   x 
            x  Ni          86         0.938341   0.815454   0.683793   x 
            x  Ni          87         0.311844   0.186717   0.192139   x 
            x  Ni          88         0.433325   0.186637   0.063798   x 
            x  Ni          89         0.308553   0.061811   0.065822   x 
            x  Ni          90         0.557131   0.186643   0.188832   x 
            x  Ni          91         0.683570   0.059881   0.186187   x 
            x  Ni          92         0.687048   0.185889   0.061939   x 
            x  Ni          93         0.811579   0.184714   0.186434   x 
            x  Ni          94         0.937148   0.059463   0.188390   x 
            x  Ni          95         0.806988   0.056075   0.062549   x 
            x  Ni          96         0.312940   0.438942   0.193022   x 
            x  Ni          97         0.435585   0.437007   0.063880   x 
            x  Ni          98         0.308739   0.312916   0.063693   x 
            x  Ni          99         0.560453   0.436949   0.184253   x 
            x  Ni         100         0.685439   0.312598   0.185623   x 
            x  Ni         101         0.809810   0.440454   0.190132   x 
            x  Ni         102         0.809710   0.312528   0.062852   x 
            x  Ni         103         0.934390   0.438377   0.063596   x 
            x  Ni         104         0.934599   0.312303   0.939822   x 
            x  Ni         105         0.308211   0.690618   0.187173   x 
            x  Ni         106         0.434773   0.562734   0.190040   x 
            x  Ni         107         0.432987   0.687625   0.065897   x 
            x  Ni         108         0.307997   0.561670   0.066530   x 
            x  Ni         109         0.559875   0.690437   0.186968   x 
            x  Ni         110         0.687069   0.567629   0.190027   x 
            x  Ni         111         0.560122   0.564923   0.065266   x 
            x  Ni         112         0.811654   0.811819   0.064761   x 
            x  Ni         113         0.814337   0.568703   0.069077   x 
            x  Ni         114         0.935726   0.689548   0.067014   x 
            x  Ni         115         0.432425   0.815041   0.189267   x 
            x  Ni         116         0.433603   0.939053   0.065040   x 
            x  Ni         117         0.306556   0.813078   0.064330   x 
            x  Ni         118         0.559170   0.938830   0.185072   x 
            x  Ni         119         0.685436   0.814263   0.189336   x 
            x  Ni         120         0.557745   0.812708   0.062798   x 
            x  Ni         121         0.939929   0.816702   0.191911   x 
            x  Ni         122         0.935884   0.935807   0.061643   x 
            x  Ni         123         0.310183   0.186250   0.439656   x 
            x  Ni         124         0.436301   0.060499   0.439722   x 
            x  Ni         125         0.308585   0.062763   0.313913   x 
            x  Ni         126         0.566895   0.188423   0.442316   x 
            x  Ni         127         0.560970   0.061642   0.564515   x 
            x  Ni         128         0.685172   0.185983   0.311813   x 
            x  Ni         129         0.559004   0.062398   0.313001   x 
            x  Ni         130         0.807717   0.057698   0.313423   x 
            x  Ni         131         0.438818   0.315529   0.439832   x 
            x  Ni         132         0.312753   0.313504   0.315612   x 
            x  Ni         133         0.679624   0.439172   0.311115   x 
            x  Ni         134         0.811707   0.565174   0.310983   x 
            x  Ni         135         0.559714   0.310863   0.310705   x 
            x  Ni         136         0.677757   0.442597   0.560269   x 
            x  Ni         137         0.806799   0.311836   0.311840   x 
            x  Ni         138         0.937297   0.436212   0.316788   x 
            x  Ni         139         0.308469   0.689992   0.436376   x 
            x  Ni         140         0.430724   0.562981   0.435474   x 
            x  Ni         141         0.433868   0.688441   0.309966   x 
            x  Ni         142         0.559384   0.688035   0.436471   x 
            x  Ni         143         0.685824   0.691182   0.311768   x 
            x  Ni         144         0.560495   0.565908   0.313795   x 
            x  Ni         145         0.810753   0.689072   0.437975   x 
            x  Ni         146         0.806017   0.439246   0.437498   x 
            x  Ni         147         0.937915   0.690289   0.316939   x 
            x  Ni         148         0.431700   0.938051   0.312868   x 
            x  Ni         149         0.305872   0.812862   0.314621   x 
            x  Ni         150         0.558242   0.935373   0.437724   x 
            x  Ni         151         0.683212   0.812914   0.436752   x 
            x  Ni         152         0.683978   0.937220   0.312007   x 
            x  Ni         153         0.558362   0.813226   0.312185   x 
            x  Ni         154         0.809732   0.938201   0.440287   x 
            x  Ni         155         0.935994   0.814638   0.443951   x 
            x  Ni         156         0.813325   0.817943   0.316779   x 
            x  Ni         157         0.311326   0.185351   0.690277   x 
            x  Ni         158         0.434889   0.060899   0.687433   x 
            x  Ni         159         0.437599   0.186138   0.562585   x 
            x  Ni         160         0.308623   0.063961   0.564004   x 
            x  Ni         161         0.557978   0.189643   0.691309   x 
            x  Ni         162         0.681600   0.061158   0.690346   x 
            x  Ni         163         0.801803   0.188536   0.440961   x 
            x  Ni         164         0.557148   0.934745   0.689527   x 
            x  Ni         165         0.810034   0.189332   0.691344   x 
            x  Ni         166         0.938609   0.062285   0.688841   x 
            x  Ni         167         0.935675   0.066885   0.441406   x 
            x  Ni         168         0.804800   0.062437   0.564519   x 
            x  Ni         169         0.432278   0.311204   0.690883   x 
            x  Ni         170         0.426905   0.437793   0.563388   x 
            x  Ni         171         0.682098   0.558291   0.686509   x 
            x  Ni         172         0.559145   0.315714   0.564659   x 
            x  Ni         173         0.812602   0.562408   0.810137   x 
            x  Ni         174         0.941657   0.309612   0.691004   x 
            x  Ni         175         0.938138   0.437097   0.558645   x 
            x  Ni         176         0.806562   0.314266   0.565034   x 
            x  Ni         177         0.308259   0.689642   0.688929   x 
            x  Ni         178         0.430294   0.563059   0.688428   x 
            x  Ni         179         0.434002   0.694061   0.562886   x 
            x  Ni         180         0.683004   0.683042   0.563017   x 
            x  Ni         181         0.684037   0.320966   0.692168   x 
            x  Ni         182         0.811704   0.686225   0.684478   x 
            x  Ni         183         0.939221   0.564223   0.684989   x 
            x  Ni         184         0.810876   0.563905   0.560590   x 
            x  Ni         185         0.307850   0.939913   0.687005   x 
            x  Ni         186         0.434612   0.934712   0.560889   x 
            x  Ni         187         0.306895   0.814135   0.560115   x 
            x  Ni         188         0.683546   0.938630   0.564575   x 
            x  Ni         189         0.810967   0.936668   0.685337   x 
            xxxxxxxxxxxxxxxxxxxxxxxxxxxxxxxxxxxxxxxxxxxxxxxxxxxxxxxxxxxx
 
 
                         No user defined ionic velocities
 
                           -------------------------------
                                   Details of Species
                           -------------------------------
 
                               Mass of species in AMU
                                    Al   26.9815400
                                    Ni   58.6934000
 
                          Electric Quadrupole Moment (Barn)
                                    Al    0.1466000 Isotope 27
                                    Ni    0.1620000 Isotope 61
 
                          Files used for pseudopotentials:
                                    Al 3|2.2|2.2|1.4|4|5|5|30:31:32U2U2
                                    Ni 3|2.4|2.4|1.0|8|9|10|40:41:32U2U2(qc=5.5)
 
                           -------------------------------
                              k-Points For BZ Sampling
                           -------------------------------
                       MP grid size for SCF calculation is  1  1  1
                            with an offset of   0.000  0.000  0.000
                       Number of kpoints used =             1
 
                           -------------------------------
                               Symmetry and Constraints
                           -------------------------------
 
                      Maximum deviation from symmetry =  0.00000         ANG
 
                      Number of symmetry operations   =           1
                      Number of ionic constraints     =           3
                      Point group of crystal =     1: C1, 1, 1
                      Space group of crystal =     1: P1, P 1
 
             Set iprint > 1 for details on symmetry rotations/translations
 
                         Centre of mass is constrained
             Set iprint > 1 for details of linear ionic constraints
 
                         Number of cell constraints= 6
                         Cell constraints are:  0 0 0 0 0 0
 
                         External pressure/stress (GPa)
                          0.00000   0.00000   0.00000
                                    0.00000   0.00000
                                              0.00000
  
+---------------- MEMORY AND SCRATCH DISK ESTIMATES PER PROCESS --------------+
|                                                     Memory          Disk    |
| Baseline code, static data and system overhead      622.0 MB         0.0 MB |
| BLAS internal memory storage                          0.0 MB         0.0 MB |
| Model and support data                              703.8 MB         0.0 MB |
| Electronic energy minimisation requirements         158.2 MB         0.0 MB |
| Force calculation requirements                        5.4 MB         0.0 MB |
|                                               ----------------------------- |
| Approx. total storage required per process         1484.1 MB         0.0 MB |
|                                                                             |
| Requirements will fluctuate during execution and may exceed these estimates |
+-----------------------------------------------------------------------------+
Calculating total energy with cut-off of  900.000 eV.
------------------------------------------------------------------------ <-- SCF
SCF loop      Energy           Fermi           Energy gain       Timer   <-- SCF
                               energy          per atom          (sec)   <-- SCF
------------------------------------------------------------------------ <-- SCF
Initial  -2.15544588E+005  0.00000000E+000                        16.14  <-- SCF
      1  -2.59955595E+005  7.17376641E+000   1.74160812E+002      58.79  <-- SCF
      2  -2.66861431E+005  3.71151018E+000   2.70817083E+001     102.63  <-- SCF
      3  -2.67566117E+005  3.68328712E+000   2.76347455E+000     147.11  <-- SCF
      4  -2.67621235E+005  3.81795684E+000   2.16148711E-001     185.50  <-- SCF
      5  -2.67987486E+005  6.86862931E+000   1.43627725E+000     234.37  <-- SCF
      6  -2.67714173E+005  5.71019107E+000  -1.07181189E+000     290.35  <-- SCF
      7  -2.67609418E+005  4.74901010E+000  -4.10805304E-001     341.16  <-- SCF
      8  -2.67585961E+005  4.47441845E+000  -9.19905961E-002     391.66  <-- SCF
      9  -2.67583145E+005  4.51642002E+000  -1.10412733E-002     437.81  <-- SCF
     10  -2.67597778E+005  4.61692137E+000   5.73830416E-002     484.29  <-- SCF
     11  -2.67583140E+005  4.49068633E+000  -5.74042220E-002     531.18  <-- SCF
     12  -2.67579968E+005  4.45626693E+000  -1.24373189E-002     577.97  <-- SCF
     13  -2.67580690E+005  4.46570689E+000   2.83138218E-003     625.24  <-- SCF
     14  -2.67580167E+005  4.46114676E+000  -2.05294440E-003     671.42  <-- SCF
     15  -2.67579437E+005  4.46064152E+000  -2.86303705E-003     717.65  <-- SCF
     16  -2.67579349E+005  4.46165882E+000  -3.42632720E-004     763.14  <-- SCF
     17  -2.67579390E+005  4.46644396E+000   1.58683559E-004     810.04  <-- SCF
     18  -2.67579323E+005  4.46849309E+000  -2.60267333E-004     855.62  <-- SCF
     19  -2.67579318E+005  4.46857771E+000  -2.16705201E-005     902.72  <-- SCF
     20  -2.67579347E+005  4.46955513E+000   1.14884304E-004     948.89  <-- SCF
     21  -2.67579311E+005  4.46910710E+000  -1.39695319E-004     994.70  <-- SCF
     22  -2.67579305E+005  4.46955027E+000  -2.44937003E-005    1039.67  <-- SCF
     23  -2.67579308E+005  4.46976716E+000   1.17795589E-005    1085.32  <-- SCF
     24  -2.67579305E+005  4.46945069E+000  -1.22591387E-005    1130.06  <-- SCF
     25  -2.67579304E+005  4.46949800E+000  -4.91880904E-006    1162.08  <-- SCF
     26  -2.67579304E+005  4.46947047E+000   1.72805675E-007    1192.47  <-- SCF
     27  -2.67579304E+005  4.46967872E+000   3.21265898E-007    1222.34  <-- SCF
------------------------------------------------------------------------ <-- SCF
 
Final energy, E             =  -267574.6101007     eV
Final free energy (E-TS)    =  -267579.3039027     eV
(energies not corrected for finite basis set)
 
NB est. 0K energy (E-0.5TS)      =  -267576.9570017     eV
 

Writing analysis data to castep.castep_bin

Writing model to castep.check
 
+---------------- MEMORY AND SCRATCH DISK ESTIMATES PER PROCESS --------------+
|                                                     Memory          Disk    |
| Model and support data                              713.9 MB         0.0 MB |
| Electronic energy minimisation requirements         158.2 MB         0.0 MB |
| Geometry minimisation requirements                  194.9 MB         0.0 MB |
|                                               ----------------------------- |
| Approx. total storage required per process         1067.1 MB         0.0 MB |
|                                                                             |
| Requirements will fluctuate during execution and may exceed these estimates |
+-----------------------------------------------------------------------------+
 
 
 ************************************** Forces **************************************
 *                                                                                  *
 *                           Cartesian components (eV/A)                            *
 * -------------------------------------------------------------------------------- *
 *                         x                    y                    z              *
 *                                                                                  *
 * Al              1      1.82006              0.04629              0.00955         *
 * Al              2      0.58359              0.48128              0.14420         *
 * Al              3      0.77499             -0.02694             -0.78693         *
 * Al              4      1.50452             -0.57623             -0.75100         *
 * Al              5      1.05256             -0.88218             -0.07961         *
 * Al              6      1.07239              0.43719             -0.67323         *
 * Al              7      1.76216              0.02079             -0.20083         *
 * Al              8      0.89217              0.02492              0.59650         *
 * Al              9      2.23105              0.34748             -0.03820         *
 * Al             10      1.64283              0.28826              0.11557         *
 * Al             11      2.09522              0.01462              0.27946         *
 * Al             12      1.21949             -0.82611              0.07492         *
 * Al             13      1.99455              0.38263              0.02514         *
 * Al             14      0.89445              0.35123              0.38446         *
 * Al             15      1.16156             -0.64381              0.39064         *
 * Al             16      1.83384              0.29170             -0.04058         *
 * Al             17     -0.23178              0.05130              0.07154         *
 * Al             18     -1.31715             -0.35612              0.21191         *
 * Al             19     -0.20216             -0.01517             -0.17132         *
 * Al             20      0.16933              0.17427              0.06319         *
 * Al             21     -0.06837              0.01107              0.09837         *
 * Al             22      0.03447              0.03347             -0.22682         *
 * Al             23     -0.10196              0.02961              0.07330         *
 * Al             24     -0.99654             -0.50929              0.51144         *
 * Al             25      0.03534              0.09518              0.01054         *
 * Al             26     -0.00324             -0.10558             -0.06284         *
 * Al             27      0.13557              0.10833              0.05087         *
 * Al             28     -0.01430             -0.01663             -0.06461         *
 * Al             29     -0.13504              0.12464              0.06885         *
 * Al             30      0.18873             -0.17224              0.02721         *
 * Al             31     -0.02397              0.04355              0.10475         *
 * Al             32     -2.08198             -0.29993             -0.15637         *
 * Al             33     -0.12853             -0.22589             -0.05613         *
 * Al             34      0.00573              0.07460              0.07736         *
 * Al             35     -1.02666             -0.30641              0.44290         *
 * Al             36      0.00580              0.06599              0.02086         *
 * Al             37      0.02946              0.19327             -0.20058         *
 * Al             38     -0.52464              0.47354              0.28900         *
 * Al             39     -0.19053              0.04363              0.02989         *
 * Al             40      0.20206              0.02322              0.21581         *
 * Al             41     -0.07833             -0.08301              0.01542         *
 * Al             42     -1.01719              0.16257             -0.17198         *
 * Al             43     -0.96206              0.35823             -0.16888         *
 * Al             44      0.07948             -0.14160             -0.05832         *
 * Al             45     -0.06673             -0.04800              0.09634         *
 * Al             46     -1.14124             -0.06192              0.60395         *
 * Al             47     -0.01434              0.08809              0.01476         *
 * Al             48      0.03047             -0.07094              0.14876         *
 * Al             49     -0.11248             -0.06330             -0.00894         *
 * Al             50     -0.01757             -0.02537              0.05614         *
 * Al             51     -1.97264             -0.15078             -0.26770         *
 * Al             52      0.08562             -0.01085              0.18012         *
 * Al             53     -0.20567             -0.12767              0.04319         *
 * Al             54      0.13754              0.15824              0.14588         *
 * Al             55     -0.17931              0.06747             -0.08637         *
 * Al             56     -1.01512              0.58389             -0.00897         *
 * Al             57     -0.12431              0.21978              0.01236         *
 * Al             58      0.01445              0.04173             -0.13903         *
 * Al             59     -1.11191             -0.04994             -0.28697         *
 * Al             60     -1.61066             -0.06621             -0.23980         *
 * Al             61      0.06840             -0.02266             -0.26171         *
 * Al             62     -0.09354             -0.07525              0.06614         *
 * Al             63     -0.26247             -0.09682             -0.08385         *
 * Al             64     -0.76655              0.67554             -0.08666         *
 * Al             65     -0.71854              0.42918              0.26893         *
 * Al             66      0.06923             -0.32436             -0.24704         *
 * Ni              1     -0.12826             -0.10659             -0.00936         *
 * Ni              2      0.08539              0.01535             -0.00835         *
 * Ni              3      0.24838              0.06416             -0.08672         *
 * Ni              4     -0.24922              0.23345              0.06680         *
 * Ni              5      0.10878             -0.05423             -0.12632         *
 * Ni              6     -0.04015             -0.05522              0.12629         *
 * Ni              7     -0.01984              0.00070             -0.04598         *
 * Ni              8      0.22752             -0.04254             -0.05973         *
 * Ni              9      0.22715             -0.04710             -0.01493         *
 * Ni             10     -0.26144             -0.50815             -0.59565         *
 * Ni             11      0.13482              0.05212              0.11489         *
 * Ni             12      0.12198              0.06600              0.00298         *
 * Ni             13     -0.62980              0.55704             -0.03798         *
 * Ni             14      0.02527              0.16802              0.02347         *
 * Ni             15      0.22277             -0.02614              0.03067         *
 * Ni             16      0.13376             -0.08055             -0.06147         *
 * Ni             17      0.09097              0.00877              0.07938         *
 * Ni             18      0.07359              0.02273              0.02943         *
 * Ni             19      0.08528             -0.35846              0.07602         *
 * Ni             20      0.09092              0.03652             -0.06531         *
 * Ni             21      0.04086              0.04220              0.09171         *
 * Ni             22      0.10721              0.08378              0.18414         *
 * Ni             23      0.05462             -0.17694             -0.03177         *
 * Ni             24      0.14342             -0.00754             -0.20165         *
 * Ni             25     -0.63186              0.58173             -0.01779         *
 * Ni             26      0.02746              0.23811              0.04817         *
 * Ni             27      0.25513             -0.09696              0.02328         *
 * Ni             28      0.14204             -0.00141             -0.27986         *
 * Ni             29      0.06175             -0.14077             -0.05261         *
 * Ni             30      0.08357             -0.05409             -0.07159         *
 * Ni             31     -0.04157             -0.35283              0.41960         *
 * Ni             32      0.06912              0.03969              0.04748         *
 * Ni             33      0.18267              0.19805              0.00530         *
 * Ni             34      0.33512              0.13349              0.22426         *
 * Ni             35     -0.02109             -0.21721             -0.05922         *
 * Ni             36      0.02203             -0.05497             -0.06261         *
 * Ni             37      0.04553             -0.29782             -0.00514         *
 * Ni             38      0.09214              0.09604             -0.05552         *
 * Ni             39      0.12129             -0.07390             -0.02978         *
 * Ni             40     -0.16494             -0.02081             -0.04684         *
 * Ni             41      0.01019             -0.12486              0.04825         *
 * Ni             42      0.07382             -0.02017             -0.09253         *
 * Ni             43      0.02640              0.21670             -0.30837         *
 * Ni             44      0.02462              0.07628              0.08547         *
 * Ni             45      0.14715              0.09842             -0.10293         *
 * Ni             46      0.09786              0.06243              0.04069         *
 * Ni             47      0.08271              0.00450              0.03930         *
 * Ni             48      0.22766             -0.04987              0.20218         *
 * Ni             49     -0.06445              0.04535              0.14194         *
 * Ni             50     -0.04542             -0.04208             -0.02663         *
 * Ni             51     -0.06030              0.07426              0.09499         *
 * Ni             52      0.17505             -0.11487              0.03179         *
 * Ni             53     -0.09811              0.01344             -0.05938         *
 * Ni             54      0.00140              0.01776              0.18451         *
 * Ni             55     -0.26257              0.01039             -0.01653         *
 * Ni             56     -0.06946              0.07596             -0.09119         *
 * Ni             57     -0.01776             -0.17330              0.08090         *
 * Ni             58     -0.26729              0.03670              0.01248         *
 * Ni             59     -0.11039              0.22246              0.00572         *
 * Ni             60     -0.15948             -0.06950              0.14242         *
 * Ni             61     -0.05039              0.09694             -0.24395         *
 * Ni             62     -0.11355             -0.06245              0.07461         *
 * Ni             63      0.19232             -0.09248              0.10648         *
 * Ni             64      0.11840             -0.08610              0.21481         *
 * Ni             65     -0.18451              0.07501             -0.05328         *
 * Ni             66      0.00712              0.04850             -0.01965         *
 * Ni             67      0.16226             -0.40816              0.03895         *
 * Ni             68     -0.03834              0.06670              0.35530         *
 * Ni             69     -0.32300             -0.03142              0.06889         *
 * Ni             70      0.09931              0.00525             -0.05819         *
 * Ni             71      0.09276              0.02795              0.23969         *
 * Ni             72     -0.06331              0.01824             -0.04939         *
 * Ni             73     -0.06796              0.00951              0.19417         *
 * Ni             74      0.07104             -0.06173              0.03033         *
 * Ni             75      0.01318             -0.14893              0.10671         *
 * Ni             76     -0.18739              0.08071             -0.00739         *
 * Ni             77     -0.00088             -0.08906              0.10334         *
 * Ni             78     -0.11317              0.19035             -0.03860         *
 * Ni             79      0.20686              0.07762              0.11372         *
 * Ni             80     -0.01908             -0.01731              0.19205         *
 * Ni             81      0.22344              0.13061              0.13747         *
 * Ni             82      0.02589              0.06610             -0.16781         *
 * Ni             83      0.03839             -0.02399              0.17314         *
 * Ni             84      0.28269              0.28447              0.03947         *
 * Ni             85      0.08206             -0.04373              0.03678         *
 * Ni             86     -0.58220             -0.28845             -0.04876         *
 * Ni             87     -0.08014              0.02378             -0.12140         *
 * Ni             88     -0.17395             -0.00750             -0.21799         *
 * Ni             89      0.09100              0.00186             -0.06938         *
 * Ni             90      0.20011              0.04256              0.24395         *
 * Ni             91      0.09314             -0.02399              0.09908         *
 * Ni             92      0.08304              0.08901              0.14594         *
 * Ni             93     -0.18711              0.05197              0.00775         *
 * Ni             94     -0.21662              0.17420              0.07863         *
 * Ni             95     -0.15308              0.06619             -0.09583         *
 * Ni             96     -0.11479              0.01721             -0.13415         *
 * Ni             97     -0.13298             -0.00920              0.04823         *
 * Ni             98      0.01243             -0.02279             -0.11796         *
 * Ni             99     -0.03309             -0.04502              0.21248         *
 * Ni            100     -0.07581             -0.07280              0.01230         *
 * Ni            101     -0.08814             -0.01168              0.17239         *
 * Ni            102     -0.01129              0.04117              0.05315         *
 * Ni            103     -0.09138              0.14414              0.01726         *
 * Ni            104     -0.17440              0.02976             -0.14311         *
 * Ni            105     -0.12314              0.00871             -0.06424         *
 * Ni            106      0.11595              0.01135             -0.18844         *
 * Ni            107     -0.23883              0.06668              0.08351         *
 * Ni            108      0.23376              0.03663             -0.10426         *
 * Ni            109     -0.12968             -0.13662              0.21869         *
 * Ni            110     -0.32832              0.11447              0.12470         *
 * Ni            111     -0.14566             -0.03336             -0.07830         *
 * Ni            112     -0.16811             -0.06623             -0.11372         *
 * Ni            113     -0.15424             -0.04726             -0.14163         *
 * Ni            114      0.08946             -0.24451             -0.17748         *
 * Ni            115      0.22123             -0.17547             -0.12781         *
 * Ni            116     -0.09589              0.06021              0.00843         *
 * Ni            117      0.22590             -0.08285             -0.19152         *
 * Ni            118      0.03256              0.09363              0.15463         *
 * Ni            119     -0.19783             -0.01098              0.05485         *
 * Ni            120     -0.13734              0.06582              0.09950         *
 * Ni            121     -0.27535              0.13987             -0.05286         *
 * Ni            122     -0.04111             -0.05199             -0.15840         *
 * Ni            123     -0.22299             -0.15564              0.00002         *
 * Ni            124      0.03048              0.04546              0.12243         *
 * Ni            125      0.01789              0.12842             -0.17654         *
 * Ni            126     -0.05845              0.09789              0.07722         *
 * Ni            127     -0.18573             -0.02606             -0.02143         *
 * Ni            128     -0.07862              0.03077             -0.20872         *
 * Ni            129     -0.07657             -0.13362             -0.06334         *
 * Ni            130     -0.09310              0.19927             -0.12811         *
 * Ni            131      0.04193              0.12334              0.27857         *
 * Ni            132      0.11611             -0.14425             -0.18842         *
 * Ni            133      0.21793              0.02097             -0.18988         *
 * Ni            134     -0.20128             -0.33354             -0.16966         *
 * Ni            135      0.08892             -0.01430             -0.23766         *
 * Ni            136      0.06847              0.10330             -0.05276         *
 * Ni            137      0.15593             -0.05274             -0.04731         *
 * Ni            138     -0.28738              0.08418             -0.16565         *
 * Ni            139     -0.23759              0.01993              0.09903         *
 * Ni            140     -0.25411              0.07699             -0.24945         *
 * Ni            141      0.15126              0.00158              0.08866         *
 * Ni            142     -0.02462             -0.09324             -0.14060         *
 * Ni            143     -0.20658              0.11565              0.26707         *
 * Ni            144      0.00308              0.21969             -0.32673         *
 * Ni            145      0.12329              0.31192             -0.17562         *
 * Ni            146     -0.04404             -0.11887             -0.04522         *
 * Ni            147     -0.15839             -0.32419             -0.14498         *
 * Ni            148      0.19379             -0.05514              0.03815         *
 * Ni            149      0.07700             -0.06759             -0.00127         *
 * Ni            150     -0.04744              0.03480             -0.00001         *
 * Ni            151      0.12081              0.07090             -0.32734         *
 * Ni            152     -0.31008             -0.27644              0.08998         *
 * Ni            153      0.06767              0.10275             -0.25270         *
 * Ni            154      0.01662              0.00959              0.04270         *
 * Ni            155     -0.29948             -0.20295              0.06665         *
 * Ni            156     -0.26930             -0.00463              0.19556         *
 * Ni            157     -0.18795             -0.12816              0.14885         *
 * Ni            158      0.01366              0.06630              0.10721         *
 * Ni            159      0.14739             -0.00404              0.10455         *
 * Ni            160      0.15120             -0.00770              0.04884         *
 * Ni            161     -0.04266             -0.12363             -0.00239         *
 * Ni            162      0.23412             -0.10254             -0.02940         *
 * Ni            163      0.17660             -0.16533             -0.08921         *
 * Ni            164      0.02901              0.14957             -0.17461         *
 * Ni            165     -0.07840             -0.12109              0.08415         *
 * Ni            166     -0.63959              0.05062              0.05769         *
 * Ni            167     -0.46379             -0.27730             -0.01136         *
 * Ni            168     -0.06295              0.09196              0.15641         *
 * Ni            169     -0.03344             -0.08377             -0.01048         *
 * Ni            170     -0.16536             -0.12230             -0.09970         *
 * Ni            171      0.01440              0.00230             -0.06074         *
 * Ni            172     -0.19018             -0.25477             -0.12020         *
 * Ni            173     -0.02089              0.02975             -0.00004         *
 * Ni            174     -0.50933              0.11437             -0.23161         *
 * Ni            175     -0.06841              0.06968              0.15228         *
 * Ni            176     -0.02096             -0.06984             -0.08881         *
 * Ni            177     -0.28415              0.13971              0.10302         *
 * Ni            178      0.21494             -0.04903              0.04596         *
 * Ni            179     -0.03659              0.05262             -0.09289         *
 * Ni            180     -0.00147             -0.23636             -0.01006         *
 * Ni            181     -0.00867             -0.02962              0.22176         *
 * Ni            182      0.10126             -0.01253             -0.01976         *
 * Ni            183     -0.17658              0.02257              0.12072         *
 * Ni            184     -0.06105             -0.09243              0.14227         *
 * Ni            185     -0.21232              0.03170             -0.01778         *
 * Ni            186      0.02927              0.03194             -0.00998         *
 * Ni            187     -0.06488              0.05304              0.05289         *
 * Ni            188     -0.29351              0.08489              0.14559         *
 * Ni            189     -0.11996              0.17481             -0.14741         *
 *                                                                                  *
 ************************************************************************************
 LBFGS: finished iteration     0 with enthalpy= -2.67579304E+005 eV
  
 +-----------+-----------------+-----------------+------------+-----+ <-- LBFGS
 | Parameter |      value      |    tolerance    |    units   | OK? | <-- LBFGS
 +-----------+-----------------+-----------------+------------+-----+ <-- LBFGS
 |  dE/ion   |   0.000000E+000 |   2.000000E-005 |         eV | No  | <-- LBFGS
 |  |F|max   |   2.258269E+000 |   5.000000E-002 |       eV/A | No  | <-- LBFGS
 |  |dR|max  |   0.000000E+000 |   1.000000E-003 |          A | No  | <-- LBFGS
 +-----------+-----------------+-----------------+------------+-----+ <-- LBFGS
  

================================================================================
 Starting LBFGS iteration          1 ...
================================================================================
  
 +------------+-------------+-------------+-----------------+ <-- min LBFGS
 |    Step    |   lambda    |   F.delta'  |    enthalpy     | <-- min LBFGS
 +------------+-------------+-------------+-----------------+ <-- min LBFGS
 |  previous  |    0.000000 |    4.783825 |  -267579.303903 | <-- min LBFGS
 +------------+-------------+-------------+-----------------+ <-- min LBFGS
  

--------------------------------------------------------------------------------
 LBFGS: starting iteration         1 with trial guess (lambda=  1.000000)
--------------------------------------------------------------------------------
 
                           -------------------------------
                                     Cell Contents
                           -------------------------------
 
            xxxxxxxxxxxxxxxxxxxxxxxxxxxxxxxxxxxxxxxxxxxxxxxxxxxxxxxxxxxxxxxxx
            x  Element         Atom        Fractional coordinates of atoms  x
            x                 Number           u          v          w      x
            x---------------------------------------------------------------x
            x  Al                1         0.059606   0.062845   0.815182   x
            x  Al                2         0.060421   0.312313   0.814793   x
            x  Al                3         0.060788   0.562380   0.814353   x
            x  Al                4         0.060172   0.813000   0.814500   x
            x  Al                5         0.059450   0.063273   0.064378   x
            x  Al                6         0.060429   0.312474   0.064975   x
            x  Al                7         0.059132   0.561999   0.064556   x
            x  Al                8         0.058213   0.812887   0.063473   x
            x  Al                9         0.058728   0.063855   0.313632   x
            x  Al               10         0.060789   0.313103   0.314411   x
            x  Al               11         0.060373   0.562233   0.314692   x
            x  Al               12         0.057671   0.812881   0.314202   x
            x  Al               13         0.058642   0.063518   0.564968   x
            x  Al               14         0.062131   0.313250   0.565246   x
            x  Al               15         0.062512   0.561488   0.564527   x
            x  Al               16         0.058966   0.813393   0.564837   x
            x  Al               17         0.799231   0.812529   0.562645   x
            x  Al               18         0.935818   0.943895   0.561166   x
            x  Al               19         0.547505   0.929680   0.933198   x
            x  Al               20         0.567379   0.810772   0.563279   x
            x  Al               21         0.549868   0.566786   0.559307   x
            x  Al               22         0.687160   0.933482   0.808771   x
            x  Al               23         0.426850   0.817819   0.686876   x
            x  Al               24         0.936805   0.689898   0.562945   x
            x  Al               25         0.685111   0.446686   0.818450   x
            x  Al               26         0.550121   0.435385   0.689763   x
            x  Al               27         0.308659   0.572987   0.563429   x
            x  Al               28         0.817253   0.438981   0.682074   x
            x  Al               29         0.683662   0.189464   0.575626   x
            x  Al               30         0.309466   0.301564   0.565570   x
            x  Al               31         0.310790   0.436540   0.698667   x
            x  Al               32         0.942015   0.940918   0.323021   x
            x  Al               33         0.434129   0.810345   0.432602   x
            x  Al               34         0.304095   0.942981   0.438355   x
            x  Al               35         0.931880   0.560695   0.432414   x
            x  Al               36         0.687936   0.563641   0.431349   x
            x  Al               37         0.304589   0.571132   0.308720   x
            x  Al               38         0.925379   0.316237   0.437336   x
            x  Al               39         0.680579   0.320383   0.434524   x
            x  Al               40         0.449678   0.439522   0.317100   x
            x  Al               41         0.306445   0.434531   0.436810   x
            x  Al               42         0.930025   0.319776   0.190288   x
            x  Al               43         0.926388   0.177042   0.314435   x
            x  Al               44         0.682096   0.058424   0.435602   x
            x  Al               45         0.437205   0.188003   0.326485   x
            x  Al               46         0.931718   0.806384   0.936639   x
            x  Al               47         0.812743   0.935909   0.189924   x
            x  Al               48         0.686058   0.929339   0.058509   x
            x  Al               49         0.302805   0.932669   0.189368   x
            x  Al               50         0.814771   0.696530   0.196753   x
            x  Al               51         0.942228   0.559108   0.192317   x
            x  Al               52         0.686631   0.690495   0.064915   x
            x  Al               53         0.559982   0.307351   0.061611   x
            x  Al               54         0.690457   0.447321   0.066406   x
            x  Al               55         0.429228   0.311172   0.185692   x
            x  Al               56         0.929281   0.178613   0.057639   x
            x  Al               57         0.560810   0.069363   0.060123   x
            x  Al               58         0.433135   0.062493   0.190765   x
            x  Al               59         0.931911   0.940720   0.809851   x
            x  Al               60         0.936140   0.565375   0.939377   x
            x  Al               61         0.688248   0.685105   0.807895   x
            x  Al               62         0.553063   0.688391   0.942368   x
            x  Al               63         0.425763   0.682346   0.813672   x
            x  Al               64         0.929388   0.182461   0.816545   x
            x  Al               65         0.926560   0.183003   0.567357   x
            x  Al               66         0.692229   0.305715   0.934935   x
            x  Ni                1         0.061495   0.187637   0.940060   x
            x  Ni                2         0.185274   0.062715   0.939955   x
            x  Ni                3         0.184728   0.186874   0.815358   x
            x  Ni                4         0.061506   0.437022   0.940136   x
            x  Ni                5         0.185041   0.311925   0.940568   x
            x  Ni                6         0.184145   0.436830   0.816285   x
            x  Ni                7         0.060837   0.687576   0.939209   x
            x  Ni                8         0.183880   0.562050   0.941359   x
            x  Ni                9         0.184713   0.687815   0.815447   x
            x  Ni               10         0.060899   0.938066   0.939298   x
            x  Ni               11         0.184543   0.813039   0.939220   x
            x  Ni               12         0.185065   0.938413   0.815101   x
            x  Ni               13         0.061802   0.188360   0.189289   x
            x  Ni               14         0.185032   0.063256   0.189105   x
            x  Ni               15         0.185771   0.187620   0.064900   x
            x  Ni               16         0.061687   0.436729   0.189449   x
            x  Ni               17         0.187663   0.312381   0.189560   x
            x  Ni               18         0.185552   0.437035   0.065267   x
            x  Ni               19         0.059408   0.687704   0.188309   x
            x  Ni               20         0.183331   0.563094   0.187903   x
            x  Ni               21         0.183225   0.687682   0.063525   x
            x  Ni               22         0.061037   0.938497   0.188950   x
            x  Ni               23         0.181271   0.812365   0.188415   x
            x  Ni               24         0.183333   0.937898   0.063432   x
            x  Ni               25         0.060935   0.188286   0.439122   x
            x  Ni               26         0.182647   0.064008   0.438705   x
            x  Ni               27         0.185148   0.188452   0.314121   x
            x  Ni               28         0.064244   0.437339   0.440645   x
            x  Ni               29         0.185674   0.311076   0.439745   x
            x  Ni               30         0.185821   0.438081   0.313388   x
            x  Ni               31         0.060602   0.687780   0.439652   x
            x  Ni               32         0.186752   0.563516   0.438927   x
            x  Ni               33         0.181026   0.689123   0.313050   x
            x  Ni               34         0.060505   0.938695   0.439148   x
            x  Ni               35         0.182581   0.814366   0.439046   x
            x  Ni               36         0.182260   0.938440   0.313959   x
            x  Ni               37         0.061293   0.187966   0.690489   x
            x  Ni               38         0.183978   0.062777   0.690312   x
            x  Ni               39         0.183358   0.185906   0.565219   x
            x  Ni               40         0.063741   0.437136   0.689073   x
            x  Ni               41         0.187138   0.311383   0.690684   x
            x  Ni               42         0.193020   0.436991   0.566224   x
            x  Ni               43         0.062033   0.687732   0.690145   x
            x  Ni               44         0.186415   0.562740   0.689416   x
            x  Ni               45         0.182788   0.689673   0.564230   x
            x  Ni               46         0.061171   0.938207   0.689943   x
            x  Ni               47         0.184546   0.814306   0.688832   x
            x  Ni               48         0.182827   0.939669   0.564027   x
            x  Ni               49         0.309859   0.186598   0.939205   x
            x  Ni               50         0.433866   0.062560   0.939004   x
            x  Ni               51         0.434809   0.186239   0.814420   x
            x  Ni               52         0.308375   0.062947   0.814228   x
            x  Ni               53         0.561117   0.187232   0.935306   x
            x  Ni               54         0.681200   0.056060   0.936341   x
            x  Ni               55         0.685934   0.186188   0.810828   x
            x  Ni               56         0.558210   0.059512   0.814022   x
            x  Ni               57         0.808995   0.182978   0.936476   x
            x  Ni               58         0.935301   0.058155   0.936864   x
            x  Ni               59         0.807417   0.059135   0.812091   x
            x  Ni               60         0.309812   0.437442   0.939364   x
            x  Ni               61         0.434964   0.311743   0.940581   x
            x  Ni               62         0.435495   0.438661   0.818356   x
            x  Ni               63         0.309114   0.310863   0.816754   x
            x  Ni               64         0.564078   0.437074   0.942303   x
            x  Ni               65         0.811419   0.316486   0.812780   x
            x  Ni               66         0.560874   0.314510   0.816677   x
            x  Ni               67         0.810299   0.441698   0.938984   x
            x  Ni               68         0.936945   0.438364   0.812116   x
            x  Ni               69         0.308545   0.686357   0.941433   x
            x  Ni               70         0.433247   0.562322   0.941888   x
            x  Ni               71         0.305827   0.561906   0.815966   x
            x  Ni               72         0.685711   0.569197   0.940368   x
            x  Ni               73         0.557591   0.565241   0.814779   x
            x  Ni               74         0.810918   0.687082   0.937217   x
            x  Ni               75         0.935842   0.688233   0.809440   x
            x  Ni               76         0.310282   0.937935   0.940059   x
            x  Ni               77         0.428832   0.809614   0.937810   x
            x  Ni               78         0.430327   0.936734   0.812065   x
            x  Ni               79         0.305959   0.812652   0.813631   x
            x  Ni               80         0.554883   0.806932   0.810969   x
            x  Ni               81         0.682776   0.808118   0.933699   x
            x  Ni               82         0.555150   0.686563   0.688725   x
            x  Ni               83         0.683139   0.810234   0.688657   x
            x  Ni               84         0.809728   0.932806   0.935995   x
            x  Ni               85         0.811344   0.811139   0.808960   x
            x  Ni               86         0.938263   0.815415   0.683786   x
            x  Ni               87         0.311833   0.186720   0.192123   x
            x  Ni               88         0.433302   0.186636   0.063769   x
            x  Ni               89         0.308565   0.061812   0.065813   x
            x  Ni               90         0.557158   0.186649   0.188864   x
            x  Ni               91         0.683583   0.059877   0.186200   x
            x  Ni               92         0.687059   0.185901   0.061959   x
            x  Ni               93         0.811553   0.184721   0.186435   x
            x  Ni               94         0.937119   0.059486   0.188400   x
            x  Ni               95         0.806968   0.056084   0.062536   x
            x  Ni               96         0.312924   0.438944   0.193004   x
            x  Ni               97         0.435567   0.437005   0.063887   x
            x  Ni               98         0.308740   0.312912   0.063677   x
            x  Ni               99         0.560448   0.436943   0.184282   x
            x  Ni              100         0.685429   0.312588   0.185625   x
            x  Ni              101         0.809798   0.440452   0.190155   x
[...]
             Al 34 -- Ni 186                 0.17        2.59998
            Ni 85  -- Ni 189                 0.01        2.60026
            Ni 127 -- Ni 161                 0.04        2.60033
            Ni 165 -- Ni 181                 0.08        2.60039
             Al 9  -- Ni 34                  0.19        2.60062
            Ni 165 -- Ni 174                 0.01        2.60085
            Ni 134 -- Ni 143                -0.00        2.60093
            Ni 165 -- Ni 166                 0.01        2.60097
            Ni 177 -- Ni 187                 0.07        2.60117
            Ni 9   -- Ni 47                  0.04        2.60120
            Ni 32  -- Ni 42                 -0.00        2.60173
            Ni 75  -- Ni 86                  0.13        2.60175
            Ni 16  -- Ni 30                  0.04        2.60195
            Ni 1   -- Ni 104                -0.04        2.60210
             Al 33 -- Ni 186                 0.17        2.60226
             Al 62 -- Ni 81                  0.16        2.60256
             Al 54 -- Ni 100                 0.18        2.60266
             Al 8  -- Ni 7                   0.18        2.60321
            Ni 158 -- Ni 186                 0.11        2.60326
            Ni 40  -- Ni 175                 0.01        2.60341
             Al 55 -- Ni 99                  0.15        2.60352
             Al 38 -- Ni 25                  0.19        2.60380
             Al 8  -- Ni 114                 0.17        2.60397
             Al 16 -- Ni 86                  0.17        2.60445
             Al 26 -- Ni 136                 0.18        2.60463
             Al 2  -- Ni 104                 0.17        2.60509
            Ni 67  -- Ni 173                 0.02        2.60586
            Ni 121 -- Ni 156                 0.02        2.60596
            Ni 40  -- Ni 44                  0.03        2.60604
            Ni 46  -- Ni 86                 -0.03        2.60676
            Ni 133 -- Ni 137                 0.07        2.60686
            Ni 54  -- Ni 92                  0.07        2.60699
             Al 22 -- Ni 56                  0.16        2.60744
             Al 25 -- Ni 66                  0.13        2.60785
             Al 28 -- Ni 68                  0.16        2.60808
            Ni 79  -- Ni 185                 0.05        2.60824
            Ni 175 -- Ni 184                 0.05        2.60825
             Al 28 -- Ni 171                 0.18        2.60842
             Al 49 -- Ni 116                 0.17        2.60858
            Ni 134 -- Ni 138                 0.05        2.60863
            Ni 82  -- Ni 171                 0.07        2.60886
             Al 14 -- Ni 174                 0.18        2.60914
             Al 12 -- Ni 31                  0.19        2.60935
            Ni 13  -- Ni 15                  0.08        2.60960
             Al 63 -- Ni 82                  0.18        2.60986
            Ni 101 -- Ni 102                 0.02        2.61043
            Ni 101 -- Ni 138                 0.01        2.61052
             Al 5  -- Ni 94                  0.18        2.61053
            Ni 31  -- Ni 155                 0.02        2.61066
            Ni 94  -- Ni 122                 0.09        2.61098
            Ni 81  -- Ni 112                 0.00        2.61099
             Al 47 -- Ni 152                 0.16        2.61109
            Ni 84  -- Ni 112                 0.05        2.61117
            Ni 170 -- Ni 172                 0.18        2.61142
             Al 2  -- Ni 174                 0.17        2.61158
            Ni 23  -- Ni 24                  0.01        2.61175
            Ni 155 -- Ni 156                 0.08        2.61276
            Ni 105 -- Ni 106                 0.06        2.61296
             Al 61 -- Ni 81                  0.19        2.61298
            Ni 124 -- Ni 126                 0.11        2.61342
            Ni 94  -- Ni 130                 0.04        2.61394
             Al 6  -- Ni 104                 0.20        2.61396
            Ni 16  -- Ni 103                -0.06        2.61404
            Ni 96  -- Ni 98                  0.08        2.61417
             Al 42 -- Ni 13                  0.18        2.61448
            Ni 90  -- Ni 92                  0.02        2.61490
            Ni 34  -- Ni 167                -0.04        2.61494
             Al 18 -- Ni 34                  0.15        2.61524
             Al 49 -- Ni 148                 0.16        2.61530
             Al 52 -- Al 62                  0.28        2.61572
            Ni 136 -- Ni 176                 0.09        2.61622
            Ni 28  -- Ni 138                -0.04        2.61624
            Ni 43  -- Ni 86                  0.01        2.61632
             Al 32 -- Ni 121                 0.15        2.61648
             Al 7  -- Ni 114                 0.15        2.61653
             Al 1  -- Ni 58                  0.17        2.61670
            Ni 126 -- Ni 129                 0.04        2.61673
            Ni 4   -- Ni 18                  0.02        2.61681
             Al 59 -- Ni 10                  0.17        2.61741
            Ni 35  -- Ni 48                  0.00        2.61765
            Ni 166 -- Ni 168                 0.06        2.61772
            Ni 53  -- Ni 92                 -0.06        2.61796
            Ni 74  -- Ni 75                  0.05        2.61810
            Ni 83  -- Ni 188                 0.04        2.61818
             Al 48 -- Ni 91                  0.13        2.61819
            Ni 78  -- Ni 80                  0.04        2.61825
             Al 57 -- Ni 118                 0.15        2.61906
            Ni 121 -- Ni 147                 0.03        2.61952
            Ni 157 -- Ni 159                 0.05        2.61995
            Ni 77  -- Ni 78                  0.03        2.62032
             Al 5  -- Ni 58                  0.19        2.62059
             Al 57 -- Al 58                  0.23        2.62068
            Ni 169 -- Ni 170                -0.00        2.62080
            Ni 81  -- Ni 120                -0.06        2.62082
            Ni 14  -- Ni 36                 -0.01        2.62109
            Ni 14  -- Ni 24                  0.01        2.62142
            Ni 119 -- Ni 156                 0.00        2.62145
             Al 60 -- Ni 4                   0.17        2.62176
            Ni 126 -- Ni 135                 0.03        2.62211
            Ni 26  -- Ni 36                 -0.00        2.62218
            Ni 154 -- Ni 155                 0.01        2.62239
            Ni 19  -- Ni 121                 0.06        2.62246
            Ni 137 -- Ni 138                 0.05        2.62262
             Al 9  -- Ni 25                  0.20        2.62300
            Ni 152 -- Ni 154                 0.05        2.62303
            Ni 145 -- Ni 180                 0.01        2.62398
             Al 12 -- Ni 22                  0.17        2.62466
            Ni 72  -- Ni 173                -0.00        2.62468
            Ni 99  -- Ni 110                 0.10        2.62502
             Al 47 -- Al 48                  0.26        2.62554
            Ni 77  -- Ni 116                 0.10        2.62571
            Ni 62  -- Ni 169                 0.00        2.62581
             Al 55 -- Ni 90                  0.14        2.62609
             Al 20 -- Ni 186                 0.16        2.62636
             Al 17 -- Ni 86                  0.18        2.62650
            Ni 22  -- Ni 122                 0.01        2.62746
            Ni 124 -- Ni 125                -0.00        2.62806
             Al 34 -- Ni 149                 0.16        2.62808
            Ni 34  -- Ni 155                -0.02        2.62831
            Ni 54  -- Ni 55                  0.10        2.62873
            Ni 4   -- Ni 104                 0.01        2.62919
            Ni 112 -- Ni 121                 0.06        2.62919
            Ni 58  -- Ni 95                  0.07        2.62923
            Ni 67  -- Ni 72                  0.07        2.62937
             Al 32 -- Al 47                  0.26        2.63003
             Al 38 -- Ni 28                  0.14        2.63084
             Al 45 -- Ni 90                  0.15        2.63085
            Ni 64  -- Ni 70                  0.09        2.63200
            Ni 22  -- Ni 24                  0.06        2.63285
            Ni 183 -- Ni 184                 0.06        2.63294
             Al 23 -- Ni 82                  0.14        2.63383
             Al 29 -- Ni 163                 0.18        2.63416
            Ni 57  -- Ni 104                 0.01        2.63422
            Ni 114 -- Ni 121                 0.07        2.63425
            Ni 161 -- Ni 181                 0.09        2.63434
             Al 18 -- Ni 46                  0.14        2.63445
            Ni 101 -- Ni 103                -0.01        2.63447
            Ni 136 -- Ni 181                 0.06        2.63463
            Ni 151 -- Ni 188                -0.02        2.63497
            Ni 130 -- Ni 163                 0.05        2.63526
             Al 8  -- Ni 10                  0.18        2.63541
             Al 62 -- Al 63                  0.25        2.63623
             Al 43 -- Ni 25                  0.19        2.63697
             Al 17 -- Ni 155                 0.17        2.63711
            Ni 57  -- Ni 102                 0.01        2.63815
            Ni 29  -- Ni 30                  0.03        2.63827
             Al 19 -- Ni 81                  0.15        2.63885
             Al 10 -- Ni 138                 0.17        2.63903
            Ni 94  -- Ni 95                  0.07        2.63926
             Al 50 -- Ni 114                 0.16        2.64029
             Al 66 -- Ni 64                  0.14        2.64044
             Al 12 -- Ni 34                  0.18        2.64063
             Al 38 -- Ni 163                 0.14        2.64154
            Ni 171 -- Ni 182                 0.06        2.64217
             Al 13 -- Ni 25                  0.18        2.64235
             Al 57 -- Ni 116                 0.16        2.64257
            Ni 55  -- Ni 65                  0.02        2.64280
             Al 39 -- Ni 176                 0.13        2.64313
             Al 56 -- Ni 13                  0.18        2.64380
             Al 9  -- Ni 94                  0.17        2.64490
            Ni 9   -- Ni 43                  0.04        2.64576
            Ni 74  -- Ni 114                 0.04        2.64617
             Al 64 -- Ni 37                  0.15        2.64721
            Ni 130 -- Ni 167                 0.04        2.64823
             Al 50 -- Ni 110                 0.14        2.64875
            Ni 83  -- Ni 180                 0.06        2.64885
            Ni 147 -- Ni 155                 0.09        2.64959
            Ni 123 -- Ni 131                -0.01        2.64963
             Al 39 -- Ni 128                 0.15        2.64967
             Al 50 -- Ni 113                 0.15        2.64971
             Al 11 -- Ni 147                 0.14        2.64985
            Ni 71  -- Ni 177                 0.04        2.65039
            Ni 99  -- Ni 144                 0.05        2.65046
            Ni 31  -- Ni 35                  0.07        2.65049
             Al 15 -- Ni 183                 0.15        2.65094
             Al 3  -- Ni 68                  0.14        2.65095
            Ni 140 -- Ni 170                 0.07        2.65095
             Al 19 -- Ni 54                  0.15        2.65096
             Al 12 -- Ni 155                 0.18        2.65210
             Al 13 -- Ni 167                 0.15        2.65224
             Al 7  -- Ni 103                 0.13        2.65294
             Al 32 -- Ni 94                  0.16        2.65297
             Al 6  -- Ni 103                 0.16        2.65444
             Al 35 -- Ni 31                  0.15        2.65457
            Ni 138 -- Ni 146                 0.00        2.65517
             Al 64 -- Ni 1                   0.14        2.65542
             Al 60 -- Ni 7                   0.15        2.65564
             Al 5  -- Ni 10                  0.16        2.65640
            Ni 64  -- Ni 73                  0.07        2.65662
             Al 50 -- Al 52                  0.24        2.65674
             Al 9  -- Ni 13                  0.18        2.65776
            Ni 31  -- Ni 33                  0.06        2.65893
             Al 32 -- Ni 22                  0.15        2.65989
             Al 21 -- Ni 171                 0.12        2.66017
             Al 13 -- Ni 166                 0.15        2.66194
             Al 11 -- Ni 138                 0.14        2.66303
             Al 40 -- Ni 106                 0.12        2.66427
            Ni 10  -- Ni 24                  0.08        2.66476
             Al 22 -- Ni 80                  0.15        2.66542
             Al 65 -- Ni 37                  0.14        2.66602
             Al 53 -- Al 66                  0.23        2.66677
            Ni 25  -- Ni 39                  0.07        2.66696
            Ni 4   -- Ni 5                   0.03        2.66818
             Al 65 -- Ni 25                  0.17        2.66858
             Al 35 -- Ni 28                  0.12        2.66963
             Al 50 -- Al 51                  0.23        2.67087
             Al 26 -- Ni 73                  0.15        2.67113
             Al 25 -- Al 66                  0.21        2.67163
            Ni 67  -- Ni 113                 0.03        2.67203
            Ni 57  -- Ni 65                  0.02        2.67255
            Ni 25  -- Ni 26                  0.07        2.67277
             Al 39 -- Ni 163                 0.13        2.67393
             Al 45 -- Al 58                  0.22        2.67429
            Ni 151 -- Ni 180                -0.01        2.67518
             Al 24 -- Al 35                  0.22        2.67597
             Al 49 -- Al 58                  0.22        2.67630
            Ni 175 -- Ni 176                 0.07        2.67750
            Ni 178 -- Ni 179                 0.02        2.67768
            Ni 140 -- Ni 179                 0.07        2.67878
            Ni 174 -- Ni 176                 0.08        2.67972
             Al 23 -- Al 63                  0.22        2.67983
             Al 21 -- Al 26                  0.27        2.68190
            Ni 13  -- Ni 27                  0.06        2.68495
             Al 43 -- Ni 13                  0.16        2.68661
            Ni 147 -- Ni 156                 0.06        2.68739
            Ni 13  -- Ni 14                  0.08        2.68913
             Al 28 -- Ni 136                 0.12        2.69048
             Al 13 -- Al 18                  0.25        2.69165
             Al 1  -- Ni 166                 0.13        2.69332
            Ni 28  -- Ni 42                  0.04        2.69343
            Ni 40  -- Ni 42                  0.04        2.69386
             Al 45 -- Ni 87                  0.11        2.69400
             Al 40 -- Al 41                  0.24        2.69547
             Al 4  -- Ni 86                  0.16        2.69741
            Ni 25  -- Ni 27                  0.04        2.69896
            Ni 2   -- Ni 10                  0.04        2.70094
            Ni 146 -- Ni 175                -0.01        2.70636
             Al 30 -- Al 41                  0.19        2.70785
             Al 33 -- Al 34                  0.21        2.70912
             Al 12 -- Al 32                  0.23        2.71121
             Al 25 -- Al 26                  0.20        2.71250
             Al 9  -- Al 43                  0.23        2.71535
             Al 19 -- Al 22                  0.21        2.71973
             Al 19 -- Al 48                  0.21        2.72272
             Al 20 -- Al 23                  0.20        2.72459
             Al 38 -- Al 65                  0.21        2.72568
             Al 20 -- Al 33                  0.20        2.72599
             Al 7  -- Al 51                  0.21        2.72775
             Al 5  -- Al 56                  0.23        2.72882
             Al 17 -- Al 24                  0.20        2.72959
             Al 45 -- Al 55                  0.20        2.72995
             Al 8  -- Al 46                  0.21        2.73010
             Al 21 -- Al 36                  0.27        2.73216
             Al 40 -- Ni 132                 0.08        2.73242
             Al 5  -- Ni 13                  0.15        2.73263
             Al 9  -- Al 32                  0.22        2.73492
             Al 9  -- Ni 167                 0.12        2.73618
             Al 48 -- Al 57                  0.18        2.73770
             Al 2  -- Al 64                  0.22        2.73853
             Al 40 -- Al 55                  0.17        2.73909
             Al 11 -- Al 51                  0.20        2.73936
             Al 17 -- Al 18                  0.20        2.74785
             Al 37 -- Al 41                  0.18        2.74935
             Al 38 -- Al 43                  0.21        2.75085
             Al 19 -- Al 57                  0.18        2.75407
             Al 25 -- Al 28                  0.18        2.75440
             Al 11 -- Al 35                  0.20        2.75574
             Al 46 -- Al 59                  0.19        2.75813
             Al 1  -- Al 59                  0.19        2.76101
             Al 3  -- Al 60                  0.20        2.76155
             Al 13 -- Al 65                  0.20        2.76288
             Al 16 -- Al 18                  0.19        2.76396
             Al 61 -- Al 62                  0.19        2.76813
             Al 27 -- Al 41                  0.16        2.76987
             Al 42 -- Al 43                  0.19        2.77015
             Al 1  -- Al 64                  0.21        2.77187
             Al 16 -- Al 24                  0.17        2.77482
             Al 7  -- Al 60                  0.19        2.77719
             Al 42 -- Al 56                  0.18        2.77973
             Al 30 -- Al 31                  0.17        2.77995
             Al 29 -- Al 39                  0.17        2.78477
             Al 15 -- Al 24                  0.17        2.78605
             Al 27 -- Al 31                  0.16        2.79232
             Al 29 -- Al 44                  0.17        2.80025
             Al 53 -- Al 54                  0.16        2.80274
             Al 6  -- Al 42                  0.16        2.81251
             Al 40 -- Ni 96                  0.08        2.82206
             Al 10 -- Al 42                  0.16        2.82211
             Al 10 -- Al 38                  0.16        2.83663
             Al 4  -- Al 46                  0.16        2.84095
             Al 4  -- Al 59                  0.16        2.84343
             Al 14 -- Al 38                  0.14        2.85230
             Al 6  -- Al 56                  0.15        2.86056
             Al 14 -- Al 65                  0.15        2.86483
             Al 54 -- Al 66                  0.14        2.87133
             Al 37 -- Al 40                  0.10        2.88688
             Al 15 -- Al 35                  0.13        2.88993
             Al 10 -- Al 43                  0.09        2.96654
======================================================================
 

Writing analysis data to castep.castep_bin

Writing model to castep.check
 
 A BibTeX formatted list of references used in this run has been written to 
 castep.bib
 
Initialisation time =     11.95 s
Calculation time    =  16693.19 s
Finalisation time   =      6.77 s
Total time          =  16711.91 s
Peak Memory Use     = 2550656 kB
  
Overall parallel efficiency rating: Good (71%)                                  
  
Data was distributed by:-
G-vector (48-way); efficiency rating: Good (72%)                                
