 +-------------------------------------------------+
 |                                                 |
 |      CCC   AA    SSS  TTTTT  EEEEE  PPPP        |
 |     C     A  A  S       T    E      P   P       |
 |     C     AAAA   SS     T    EEE    PPPP        |
 |     C     A  A     S    T    E      P           |
 |      CCC  A  A  SSS     T    EEEEE  P           |
 |                                                 |
 +-------------------------------------------------+
 |                                                 |
 | Welcome to Academic Release CASTEP version 20.11|          
 | Ab Initio Total Energy Program                  |
 |                                                 |
 | Authors:                                        |
 | M. Segall, M. Probert, C. Pickard, P. Hasnip,   |
 | S. Clark, K. Refson, J. R. Yates, M. Payne      |
 |                                                 |
 | Contributors:                                   |
 | P. Lindan, P. Haynes, J. White, V. Milman,      |
 | N. Govind, M. Gibson, P. Tulip, V. Cocula,      |
 | B. Montanari, D. Quigley, M. Glover,            |
 | L. Bernasconi, A. Perlov, M. Plummer,           |
 | E. McNellis, J. Meyer, J. Gale, D. Jochym       |
 | J. Aarons, B. Walker, R. Gillen, D. Jones       |
 | T. Green, I. J. Bush, C. J. Armstrong,          |
 | E. J. Higgins, E. L. Brown, M. S. McFly,        |
 | J. Wilkins, B-C. Shih, P. J. P. Byrne,          |
 | R. J. Maurer, J. C. Womack, J. Dziedzic,        |
 | J. R. Kermode, A. Bartok-Partay                 |
 |                                                 |
 | Copyright (c) 2000 - 2020                       |
 |                                                 |
 |     Distributed under license from Cambridge    |
 |     Enterprise for academic use only.           |
 |                                                 |
 | Please cite                                     |
 |                                                 |
 |     "First principles methods using CASTEP"     |
 |                                                 |
 |         Zeitschrift fuer Kristallographie       |
 |           220(5-6) pp. 567-570 (2005)           |
 |                                                 |
 | S. J. Clark, M. D. Segall, C. J. Pickard,       |
 | P. J. Hasnip, M. J. Probert, K. Refson,         |
 | M. C. Payne                                     |
 |                                                 |
 |       in all publications arising from          |
 |              your use of CASTEP                 |
 |                                                 |
 +-------------------------------------------------+
 |                                                 |
 |              http://www.castep.org              |
 |                                                 |
 +-------------------------------------------------+
 
 
 
 Compiled for linux_x86_64_ifort on Wed, 22 Sep 2021 16:00:02 +0100
 from code version e772bf432+  HEAD  Sat Apr 3 17:41:32 2021 +0100
 Compiler: Intel Fortran 19.1.3.304; Optimisation: fast
 MATHLIBS: Intel MKL(2020.0.4) (LAPACK version 3.8.0)
 FFT Lib : mkl
 Fundamental constants values: CODATA 2014
 
 Run started: Tue, 11 Oct 2022 14:52:44 +0100
 
 Atomic calculation performed for Al: 1s2 2s2 2p6 3s2 3p1
 
 Converged in 52 iterations to an ae energy of -6606.982 eV
 
   ============================================================                
   | Pseudopotential Report - Date of generation 11-10-2022   |                
   ------------------------------------------------------------                
   | Element: Al Ionic charge:  3.00 Level of theory: RPBE    |                
   | Atomic Solver: Koelling-Harmon                           |                
   |                                                          |                
   |               Reference Electronic Structure             |                
   |         Orbital         Occupation         Energy        |                
   |            3s              2.000           -0.284        |                
   |            3p              1.000           -0.100        |                
   |                                                          |                
   |                 Pseudopotential Definition               |                
   |        Beta     l      e      Rc     scheme   norm       |                
   |          1      0   -0.284   2.192     qc      0         |                
   |          2      0    0.250   2.192     qc      0         |                
   |          3      1   -0.100   2.192     qc      0         |                
   |          4      1    0.250   2.192     qc      0         |                
   |          5      2    0.000   2.000     qc      0         |                
   |          6      2    0.250   2.000     qc      0         |                
   |         loc     3    0.000   2.192     pn      0         |                
   |                                                          |                
   | Augmentation charge Rinner = 1.398                       |                
   | Partial core correction Rc = 1.398                       |                
   ------------------------------------------------------------                
   | "3|2.2|2.2|1.4|4|5|5|30:31:32U2U2"                       |                
   ------------------------------------------------------------                
   |      Author: Chris J. Pickard, Cambridge University      |                
   ============================================================                
 
 Atomic calculation performed for Ni: 1s2 2s2 2p6 3s2 3p6 3d8 4s2
 
 Converged in 109 iterations to an ae energy of -41381.414 eV
 
   ============================================================                
   | Pseudopotential Report - Date of generation 11-10-2022   |                
   ------------------------------------------------------------                
   | Element: Ni Ionic charge: 10.00 Level of theory: RPBE    |                
   | Atomic Solver: Koelling-Harmon                           |                
   |                                                          |                
   |               Reference Electronic Structure             |                
   |         Orbital         Occupation         Energy        |                
   |            3d              8.000           -0.324        |                
   |            4s              2.000           -0.204        |                
   |                                                          |                
   |                 Pseudopotential Definition               |                
   |        Beta     l      e      Rc     scheme   norm       |                
   |          1      0   -0.204   2.401     qc      0         |                
   |          2      0    0.250   2.401     qc      0         |                
   |          3      1    0.000   2.401     qc      0         |                
   |          4      1    0.250   2.401     qc      0         |                
   |          5      2   -0.324   1.999     qc      0         |                
   |          6      2    0.250   1.999     qc      0         |                
   |         loc     3    0.000   2.401     pn      0         |                
   |                                                          |                
   | Augmentation charge Rinner = 1.001                       |                
   | Partial core correction Rc = 1.001                       |                
   ------------------------------------------------------------                
   | "3|2.4|2.4|1.0|8|9|10|40:41:32U2U2(qc=5.5)"              |                
   ------------------------------------------------------------                
   |      Author: Chris J. Pickard, Cambridge University      |                
   ============================================================                
 
 Pseudo atomic calculation performed for Al 3s2 3p1
 
 Converged in 13 iterations to a total energy of -107.6592 eV
 
 Pseudo atomic calculation performed for Ni 3d8 4s2
 
 Converged in 41 iterations to a total energy of -1369.7890 eV
 Calculation parallelised over 48 processes.
 Data is distributed by G-vector(48-way)

 ************************************ Title ************************************
 

 ***************************** General Parameters ******************************
  
 output verbosity                               : normal  (1)
 write checkpoint data to                       : castep.check
 type of calculation                            : geometry optimization
 stress calculation                             : off
 density difference calculation                 : off
 electron localisation func (ELF) calculation   : off
 Hirshfeld analysis                             : off
 molecular orbital projected DOS                : off
 deltaSCF calculation                           : off
 unlimited duration calculation
 timing information                             : on
 memory usage estimate                          : on
 write extra output files                       : on
 write final potential to formatted file        : off
 write final density to formatted file          : off
 write BibTeX reference list                    : on
 write OTFG pseudopotential files               : on
 write electrostatic potential file             : on
 write bands file                               : on
 checkpoint writing                             : both castep_bin and check files
  
 output         length unit                     : A
 output           mass unit                     : amu
 output           time unit                     : ps
 output         charge unit                     : e
 output           spin unit                     : hbar/2
 output         energy unit                     : eV
 output          force unit                     : eV/A
 output       velocity unit                     : A/ps
 output       pressure unit                     : GPa
 output     inv_length unit                     : 1/A
 output      frequency unit                     : cm-1
 output force constant unit                     : eV/A**2
 output         volume unit                     : A**3
 output   IR intensity unit                     : (D/A)**2/amu
 output         dipole unit                     : D
 output         efield unit                     : eV/A/e
 output        entropy unit                     : J/mol/K
 output    efield chi2 unit                     : pm/V
  
 wavefunctions paging                           : none
 random number generator seed                   : randomised (145245091)
 data distribution                              : optimal for this architecture
 optimization strategy                          : maximize speed(+++)

 *********************** Exchange-Correlation Parameters ***********************
  
 using functional                               : revised Perdew Burke Ernzerhof
 relativistic treatment                         : Koelling-Harmon
 DFT+D: Semi-empirical dispersion correction    : off

 ************************* Pseudopotential Parameters **************************
  
 pseudopotential representation                 : reciprocal space
 <beta|phi> representation                      : reciprocal space
 spin-orbit coupling                            : off

 **************************** Basis Set Parameters *****************************
  
 plane wave basis set cut-off                   :   900.0000   eV
 size of standard grid                          :     1.7500
 size of   fine   gmax                          :    26.8966   1/A
 finite basis set correction                    : automatic
 number of sample energies                      :          3
           sample  spacing                      :     5.0000   eV

 **************************** Electronic Parameters ****************************
  
 number of  electrons                           :  2112.    
 net charge of system                           :  0.000    
 treating system as non-spin-polarized
 number of bands                                :       1168

 ********************* Electronic Minimization Parameters **********************
  
 Method: Treating system as metallic with density mixing treatment of electrons,
         and number of  SD  steps               :          1
         and number of  CG  steps               :          4
  
 total energy / atom convergence tol.           : 0.1000E-05   eV
 eigen-energy convergence tolerance             : 0.2192E-06   eV
 max force / atom convergence tol.              : ignored
 convergence tolerance window                   :          3   cycles
 max. number of SCF cycles                      :        360
 number of fixed-spin iterations                :         10
 smearing scheme                                : Gaussian
 smearing width                                 : 0.2000       eV
 Fermi energy convergence tolerance             : 0.2721E-13   eV
 periodic dipole correction                     : NONE

 ************************** Density Mixing Parameters **************************
  
 density-mixing scheme                          : Pulay
 max. length of mixing history                  :         20
 charge density mixing amplitude                : 0.8000    
 cut-off energy for mixing                      :  900.0       eV

 *********************** Population Analysis Parameters ************************
  
 Population analysis with cutoff                :  3.000       A
 Population analysis output                     : summary and pdos components

 ********************** Geometry Optimization Parameters ***********************
  
 optimization method                            : LBFGS
 max. no. of LBFGS updates                      : unbounded
 preconditioned LBFGS is activated
 preconditioner type                            : EXP
     stabilization constant                     :     0.1000
     parameter A                                :     3.0000
     nearest neighbor distance                  : automatic
     cut-off distance                           : automatic
     parameter mu                               : automatic
 variable cell method                           : fixed basis quality
 max. number of steps                           :         30
 estimated bulk modulus                         :  500.0       GPa
 estimated <frequency>                          :  1668.       cm-1
 geom line minimiser                            : on
 with line minimiser tolerance                  :     0.4000
 total energy convergence tolerance             : 0.2000E-04   eV/atom
        max ionic |force| tolerance             : 0.5000E-01   eV/A
 max ionic |displacement| tolerance             : 0.1000E-02   A
   max |stress component| tolerance             : 0.1000       GPa
 convergence tolerance window                   :          2   steps
 backup results every                           :          5   steps
 write geom trajectory file                     : on

 *******************************************************************************
  
 
                           -------------------------------
                                      Unit Cell
                           -------------------------------
        Real Lattice(A)                      Reciprocal Lattice(1/A)
    14.4528000     0.0000000     0.0000000        0.434738273   0.000000000   0.000000000
     0.0000000    14.4528000     0.0000000        0.000000000   0.434738273   0.000000000
     0.0000000     0.0000000    14.4528000        0.000000000   0.000000000   0.434738273
 
                       Lattice parameters(A)       Cell Angles
                    a =     14.452800          alpha =   90.000000
                    b =     14.452800          beta  =   90.000000
                    c =     14.452800          gamma =   90.000000
 
                       Current cell volume =          3018.950406       A**3
                                   density =             4.304791   AMU/A**3
                                           =             7.148274     g/cm^3
 
                           -------------------------------
                                     Cell Contents
                           -------------------------------
                         Total number of ions in cell =  256
                      Total number of species in cell =    2
                        Max number of any one species =  192
 
            xxxxxxxxxxxxxxxxxxxxxxxxxxxxxxxxxxxxxxxxxxxxxxxxxxxxxxxxxxxx
            x  Element    Atom        Fractional coordinates of atoms  x
            x            Number           u          v          w      x
            x----------------------------------------------------------x
            x  Al           1         0.312500   0.812500   0.812500   x 
            x  Al           2         0.437500   0.812500   0.937500   x 
            x  Al           3         0.062500   0.937500   0.937500   x 
            x  Al           4         0.687500   0.562500   0.937500   x 
            x  Al           5         0.312500   0.562500   0.812500   x 
            x  Al           6         0.312500   0.687500   0.937500   x 
            x  Al           7         0.687500   0.312500   0.937500   x 
            x  Al           8         0.312500   0.312500   0.812500   x 
            x  Al           9         0.187500   0.437500   0.812500   x 
            x  Al          10         0.187500   0.312500   0.937500   x 
            x  Al          11         0.062500   0.437500   0.937500   x 
            x  Al          12         0.687500   0.062500   0.937500   x 
            x  Al          13         0.562500   0.187500   0.937500   x 
            x  Al          14         0.187500   0.187500   0.812500   x 
            x  Al          15         0.062500   0.187500   0.937500   x 
            x  Al          16         0.937500   0.812500   0.687500   x 
            x  Al          17         0.312500   0.812500   0.562500   x 
            x  Al          18         0.437500   0.812500   0.687500   x 
            x  Al          19         0.312500   0.937500   0.687500   x 
            x  Al          20         0.187500   0.812500   0.687500   x 
            x  Al          21         0.062500   0.937500   0.687500   x 
            x  Al          22         0.812500   0.562500   0.562500   x 
            x  Al          23         0.812500   0.687500   0.687500   x 
            x  Al          24         0.562500   0.562500   0.562500   x 
            x  Al          25         0.437500   0.687500   0.562500   x 
            x  Al          26         0.437500   0.562500   0.687500   x 
            x  Al          27         0.812500   0.312500   0.562500   x 
            x  Al          28         0.312500   0.312500   0.562500   x 
            x  Al          29         0.437500   0.437500   0.562500   x 
            x  Al          30         0.062500   0.187500   0.687500   x 
            x  Al          31         0.812500   0.937500   0.437500   x 
            x  Al          32         0.687500   0.937500   0.312500   x 
            x  Al          33         0.437500   0.812500   0.437500   x 
            x  Al          34         0.062500   0.812500   0.312500   x 
            x  Al          35         0.812500   0.562500   0.312500   x 
            x  Al          36         0.687500   0.562500   0.437500   x 
            x  Al          37         0.062500   0.687500   0.437500   x 
            x  Al          38         0.937500   0.437500   0.312500   x 
            x  Al          39         0.937500   0.312500   0.437500   x 
            x  Al          40         0.562500   0.312500   0.312500   x 
            x  Al          41         0.562500   0.437500   0.437500   x 
            x  Al          42         0.312500   0.437500   0.437500   x 
            x  Al          43         0.062500   0.437500   0.437500   x 
            x  Al          44         0.562500   0.062500   0.312500   x 
            x  Al          45         0.562500   0.187500   0.437500   x 
            x  Al          46         0.312500   0.062500   0.312500   x 
            x  Al          47         0.812500   0.812500   0.062500   x 
            x  Al          48         0.687500   0.812500   0.187500   x 
            x  Al          49         0.312500   0.812500   0.062500   x 
            x  Al          50         0.812500   0.562500   0.062500   x 
            x  Al          51         0.812500   0.687500   0.187500   x 
            x  Al          52         0.562500   0.562500   0.062500   x 
            x  Al          53         0.312500   0.562500   0.062500   x 
            x  Al          54         0.437500   0.687500   0.062500   x 
            x  Al          55         0.812500   0.312500   0.062500   x 
            x  Al          56         0.687500   0.437500   0.062500   x 
            x  Al          57         0.437500   0.437500   0.062500   x 
            x  Al          58         0.062500   0.312500   0.062500   x 
            x  Al          59         0.187500   0.437500   0.062500   x 
            x  Al          60         0.187500   0.312500   0.187500   x 
            x  Al          61         0.812500   0.062500   0.062500   x 
            x  Al          62         0.937500   0.187500   0.062500   x 
            x  Al          63         0.437500   0.062500   0.187500   x 
            x  Al          64         0.187500   0.062500   0.187500   x 
            x  Ni           1         0.062500   0.187500   0.187500   x 
            x  Ni           2         0.187500   0.187500   0.062500   x 
            x  Ni           3         0.062500   0.062500   0.062500   x 
            x  Ni           4         0.312500   0.187500   0.187500   x 
            x  Ni           5         0.437500   0.187500   0.062500   x 
            x  Ni           6         0.312500   0.062500   0.062500   x 
            x  Ni           7         0.562500   0.187500   0.187500   x 
            x  Ni           8         0.687500   0.062500   0.187500   x 
            x  Ni           9         0.687500   0.187500   0.062500   x 
            x  Ni          10         0.562500   0.062500   0.062500   x 
            x  Ni          11         0.812500   0.187500   0.187500   x 
            x  Ni          12         0.937500   0.062500   0.187500   x 
            x  Ni          13         0.062500   0.437500   0.187500   x 
            x  Ni          14         0.312500   0.437500   0.187500   x 
            x  Ni          15         0.437500   0.312500   0.187500   x 
            x  Ni          16         0.312500   0.312500   0.062500   x 
            x  Ni          17         0.562500   0.437500   0.187500   x 
            x  Ni          18         0.687500   0.312500   0.187500   x 
            x  Ni          19         0.562500   0.312500   0.062500   x 
            x  Ni          20         0.812500   0.437500   0.187500   x 
            x  Ni          21         0.937500   0.312500   0.187500   x 
            x  Ni          22         0.937500   0.437500   0.062500   x 
            x  Ni          23         0.062500   0.687500   0.187500   x 
            x  Ni          24         0.187500   0.562500   0.187500   x 
            x  Ni          25         0.187500   0.687500   0.062500   x 
            x  Ni          26         0.062500   0.562500   0.062500   x 
            x  Ni          27         0.312500   0.687500   0.187500   x 
            x  Ni          28         0.437500   0.562500   0.187500   x 
            x  Ni          29         0.562500   0.687500   0.187500   x 
            x  Ni          30         0.687500   0.562500   0.187500   x 
            x  Ni          31         0.687500   0.687500   0.062500   x 
            x  Ni          32         0.937500   0.562500   0.187500   x 
            x  Ni          33         0.937500   0.687500   0.062500   x 
            x  Ni          34         0.062500   0.937500   0.187500   x 
            x  Ni          35         0.187500   0.812500   0.187500   x 
            x  Ni          36         0.187500   0.937500   0.062500   x 
            x  Ni          37         0.062500   0.812500   0.062500   x 
            x  Ni          38         0.312500   0.937500   0.187500   x 
            x  Ni          39         0.437500   0.812500   0.187500   x 
            x  Ni          40         0.437500   0.937500   0.062500   x 
            x  Ni          41         0.562500   0.937500   0.187500   x 
            x  Ni          42         0.687500   0.937500   0.062500   x 
            x  Ni          43         0.562500   0.812500   0.062500   x 
            x  Ni          44         0.812500   0.937500   0.187500   x 
            x  Ni          45         0.937500   0.812500   0.187500   x 
            x  Ni          46         0.937500   0.937500   0.062500   x 
            x  Ni          47         0.062500   0.187500   0.437500   x 
            x  Ni          48         0.187500   0.062500   0.437500   x 
            x  Ni          49         0.187500   0.187500   0.312500   x 
            x  Ni          50         0.062500   0.062500   0.312500   x 
            x  Ni          51         0.312500   0.187500   0.437500   x 
            x  Ni          52         0.437500   0.062500   0.437500   x 
            x  Ni          53         0.437500   0.187500   0.312500   x 
            x  Ni          54         0.687500   0.062500   0.437500   x 
            x  Ni          55         0.687500   0.187500   0.312500   x 
            x  Ni          56         0.812500   0.187500   0.437500   x 
            x  Ni          57         0.937500   0.062500   0.437500   x 
            x  Ni          58         0.937500   0.187500   0.312500   x 
            x  Ni          59         0.812500   0.062500   0.312500   x 
            x  Ni          60         0.187500   0.312500   0.437500   x 
            x  Ni          61         0.187500   0.437500   0.312500   x 
            x  Ni          62         0.062500   0.312500   0.312500   x 
            x  Ni          63         0.437500   0.312500   0.437500   x 
            x  Ni          64         0.437500   0.437500   0.312500   x 
            x  Ni          65         0.312500   0.312500   0.312500   x 
            x  Ni          66         0.687500   0.312500   0.437500   x 
            x  Ni          67         0.687500   0.437500   0.312500   x 
            x  Ni          68         0.812500   0.437500   0.437500   x 
            x  Ni          69         0.812500   0.312500   0.312500   x 
            x  Ni          70         0.187500   0.562500   0.437500   x 
            x  Ni          71         0.187500   0.687500   0.312500   x 
            x  Ni          72         0.062500   0.562500   0.312500   x 
            x  Ni          73         0.312500   0.687500   0.437500   x 
            x  Ni          74         0.437500   0.562500   0.437500   x 
            x  Ni          75         0.437500   0.687500   0.312500   x 
            x  Ni          76         0.312500   0.562500   0.312500   x 
            x  Ni          77         0.562500   0.687500   0.437500   x 
            x  Ni          78         0.687500   0.687500   0.312500   x 
            x  Ni          79         0.562500   0.562500   0.312500   x 
            x  Ni          80         0.812500   0.687500   0.437500   x 
            x  Ni          81         0.937500   0.562500   0.437500   x 
            x  Ni          82         0.937500   0.687500   0.312500   x 
            x  Ni          83         0.062500   0.937500   0.437500   x 
            x  Ni          84         0.187500   0.812500   0.437500   x 
            x  Ni          85         0.187500   0.937500   0.312500   x 
            x  Ni          86         0.312500   0.937500   0.437500   x 
            x  Ni          87         0.437500   0.937500   0.312500   x 
            x  Ni          88         0.312500   0.812500   0.312500   x 
            x  Ni          89         0.562500   0.937500   0.437500   x 
            x  Ni          90         0.687500   0.812500   0.437500   x 
            x  Ni          91         0.562500   0.812500   0.312500   x 
            x  Ni          92         0.937500   0.812500   0.437500   x 
            x  Ni          93         0.937500   0.937500   0.312500   x 
            x  Ni          94         0.812500   0.812500   0.312500   x 
            x  Ni          95         0.187500   0.062500   0.687500   x 
            x  Ni          96         0.187500   0.187500   0.562500   x 
            x  Ni          97         0.062500   0.062500   0.562500   x 
            x  Ni          98         0.312500   0.187500   0.687500   x 
            x  Ni          99         0.437500   0.062500   0.687500   x 
            x  Ni         100         0.437500   0.187500   0.562500   x 
            x  Ni         101         0.312500   0.062500   0.562500   x 
            x  Ni         102         0.562500   0.187500   0.687500   x 
            x  Ni         103         0.687500   0.062500   0.687500   x 
            x  Ni         104         0.687500   0.187500   0.562500   x 
            x  Ni         105         0.562500   0.062500   0.562500   x 
            x  Ni         106         0.812500   0.187500   0.687500   x 
            x  Ni         107         0.937500   0.062500   0.687500   x 
            x  Ni         108         0.937500   0.187500   0.562500   x 
            x  Ni         109         0.812500   0.062500   0.562500   x 
            x  Ni         110         0.062500   0.437500   0.687500   x 
            x  Ni         111         0.187500   0.312500   0.687500   x 
            x  Ni         112         0.187500   0.437500   0.562500   x 
            x  Ni         113         0.062500   0.312500   0.562500   x 
            x  Ni         114         0.312500   0.437500   0.687500   x 
            x  Ni         115         0.437500   0.312500   0.687500   x 
            x  Ni         116         0.562500   0.437500   0.687500   x 
            x  Ni         117         0.687500   0.312500   0.687500   x 
            x  Ni         118         0.687500   0.437500   0.562500   x 
            x  Ni         119         0.562500   0.312500   0.562500   x 
            x  Ni         120         0.812500   0.437500   0.687500   x 
            x  Ni         121         0.937500   0.312500   0.687500   x 
            x  Ni         122         0.937500   0.437500   0.562500   x 
            x  Ni         123         0.062500   0.687500   0.687500   x 
            x  Ni         124         0.187500   0.562500   0.687500   x 
            x  Ni         125         0.187500   0.687500   0.562500   x 
            x  Ni         126         0.062500   0.562500   0.562500   x 
            x  Ni         127         0.312500   0.687500   0.687500   x 
            x  Ni         128         0.312500   0.562500   0.562500   x 
            x  Ni         129         0.562500   0.687500   0.687500   x 
            x  Ni         130         0.687500   0.562500   0.687500   x 
            x  Ni         131         0.687500   0.687500   0.562500   x 
            x  Ni         132         0.937500   0.562500   0.687500   x 
            x  Ni         133         0.937500   0.687500   0.562500   x 
            x  Ni         134         0.187500   0.937500   0.562500   x 
            x  Ni         135         0.062500   0.812500   0.562500   x 
            x  Ni         136         0.437500   0.937500   0.562500   x 
            x  Ni         137         0.562500   0.937500   0.687500   x 
            x  Ni         138         0.687500   0.812500   0.687500   x 
            x  Ni         139         0.687500   0.937500   0.562500   x 
            x  Ni         140         0.562500   0.812500   0.562500   x 
            x  Ni         141         0.812500   0.937500   0.687500   x 
            x  Ni         142         0.937500   0.937500   0.562500   x 
            x  Ni         143         0.812500   0.812500   0.562500   x 
            x  Ni         144         0.187500   0.062500   0.937500   x 
            x  Ni         145         0.062500   0.062500   0.812500   x 
            x  Ni         146         0.312500   0.187500   0.937500   x 
            x  Ni         147         0.437500   0.062500   0.937500   x 
            x  Ni         148         0.437500   0.187500   0.812500   x 
            x  Ni         149         0.312500   0.062500   0.812500   x 
            x  Ni         150         0.687500   0.187500   0.812500   x 
            x  Ni         151         0.562500   0.062500   0.812500   x 
            x  Ni         152         0.812500   0.187500   0.937500   x 
            x  Ni         153         0.937500   0.062500   0.937500   x 
            x  Ni         154         0.937500   0.187500   0.812500   x 
            x  Ni         155         0.812500   0.062500   0.812500   x 
            x  Ni         156         0.062500   0.312500   0.812500   x 
            x  Ni         157         0.312500   0.437500   0.937500   x 
            x  Ni         158         0.437500   0.312500   0.937500   x 
            x  Ni         159         0.437500   0.437500   0.812500   x 
            x  Ni         160         0.562500   0.437500   0.937500   x 
            x  Ni         161         0.687500   0.437500   0.812500   x 
            x  Ni         162         0.562500   0.312500   0.812500   x 
            x  Ni         163         0.812500   0.437500   0.937500   x 
            x  Ni         164         0.937500   0.312500   0.937500   x 
            x  Ni         165         0.937500   0.437500   0.812500   x 
            x  Ni         166         0.812500   0.312500   0.812500   x 
            x  Ni         167         0.062500   0.687500   0.937500   x 
            x  Ni         168         0.187500   0.562500   0.937500   x 
            x  Ni         169         0.187500   0.687500   0.812500   x 
            x  Ni         170         0.062500   0.562500   0.812500   x 
            x  Ni         171         0.437500   0.562500   0.937500   x 
            x  Ni         172         0.437500   0.687500   0.812500   x 
            x  Ni         173         0.562500   0.687500   0.937500   x 
            x  Ni         174         0.687500   0.687500   0.812500   x 
            x  Ni         175         0.562500   0.562500   0.812500   x 
            x  Ni         176         0.812500   0.687500   0.937500   x 
            x  Ni         177         0.937500   0.562500   0.937500   x 
            x  Ni         178         0.937500   0.687500   0.812500   x 
            x  Ni         179         0.812500   0.562500   0.812500   x 
            x  Ni         180         0.187500   0.812500   0.937500   x 
            x  Ni         181         0.187500   0.937500   0.812500   x 
            x  Ni         182         0.062500   0.812500   0.812500   x 
            x  Ni         183         0.312500   0.937500   0.937500   x 
            x  Ni         184         0.437500   0.937500   0.812500   x 
            x  Ni         185         0.562500   0.937500   0.937500   x 
            x  Ni         186         0.687500   0.812500   0.937500   x 
            x  Ni         187         0.687500   0.937500   0.812500   x 
            x  Ni         188         0.562500   0.812500   0.812500   x 
            x  Ni         189         0.812500   0.937500   0.937500   x 
            x  Ni         190         0.937500   0.812500   0.937500   x 
            x  Ni         191         0.937500   0.937500   0.812500   x 
            x  Ni         192         0.812500   0.812500   0.812500   x 
            xxxxxxxxxxxxxxxxxxxxxxxxxxxxxxxxxxxxxxxxxxxxxxxxxxxxxxxxxxxx
 
 
                         No user defined ionic velocities
 
                           -------------------------------
                                   Details of Species
                           -------------------------------
 
                               Mass of species in AMU
                                    Al   26.9815400
                                    Ni   58.6934000
 
                          Electric Quadrupole Moment (Barn)
                                    Al    0.1466000 Isotope 27
                                    Ni    0.1620000 Isotope 61
 
                          Files used for pseudopotentials:
                                    Al 3|2.2|2.2|1.4|4|5|5|30:31:32U2U2
                                    Ni 3|2.4|2.4|1.0|8|9|10|40:41:32U2U2(qc=5.5)
 
                           -------------------------------
                              k-Points For BZ Sampling
                           -------------------------------
                       MP grid size for SCF calculation is  1  1  1
                            with an offset of   0.000  0.000  0.000
                       Number of kpoints used =             1
 
                           -------------------------------
                               Symmetry and Constraints
                           -------------------------------
 
                      Maximum deviation from symmetry =  0.00000         ANG
 
                      Number of symmetry operations   =           1
                      Number of ionic constraints     =           3
                      Point group of crystal =     1: C1, 1, 1
                      Space group of crystal =     1: P1, P 1
 
             Set iprint > 1 for details on symmetry rotations/translations
 
                         Centre of mass is constrained
             Set iprint > 1 for details of linear ionic constraints
 
                         Number of cell constraints= 0
                         Cell constraints are:  1 2 3 4 5 6
 
                         External pressure/stress (GPa)
                          0.00000   0.00000   0.00000
                                    0.00000   0.00000
                                              0.00000
  
+---------------- MEMORY AND SCRATCH DISK ESTIMATES PER PROCESS --------------+
|                                                     Memory          Disk    |
| Baseline code, static data and system overhead     6721.0 MB         0.0 MB |
| BLAS internal memory storage                          0.0 MB         0.0 MB |
| Model and support data                              703.7 MB         0.0 MB |
| Electronic energy minimisation requirements         158.6 MB         0.0 MB |
| Force calculation requirements                        5.4 MB         0.0 MB |
|                                               ----------------------------- |
| Approx. total storage required per process         7583.3 MB         0.0 MB |
|                                                                             |
| Requirements will fluctuate during execution and may exceed these estimates |
+-----------------------------------------------------------------------------+
Calculating finite basis set correction with  3 cut-off energies.
Calculating total energy with cut-off of  890.000 eV.
------------------------------------------------------------------------ <-- SCF
SCF loop      Energy           Fermi           Energy gain       Timer   <-- SCF
                               energy          per atom          (sec)   <-- SCF
------------------------------------------------------------------------ <-- SCF
Initial  -2.20486332E+005  0.00000000E+000                        18.99  <-- SCF
      1  -2.63864133E+005  7.18867294E+000   1.69444535E+002      58.17  <-- SCF
      2  -2.70722994E+005  3.81201248E+000   2.67924278E+001      92.26  <-- SCF
      3  -2.71442624E+005  3.74326966E+000   2.81105382E+000     128.65  <-- SCF
      4  -2.71505216E+005  3.87035710E+000   2.44497963E-001     160.07  <-- SCF
      5  -2.71802977E+005  6.67849100E+000   1.16313114E+000     200.05  <-- SCF
      6  -2.71597887E+005  5.68661047E+000  -8.01134617E-001     246.96  <-- SCF
      7  -2.71501199E+005  4.73674763E+000  -3.77687964E-001     287.74  <-- SCF
      8  -2.71477158E+005  4.52631679E+000  -9.39093977E-002     330.91  <-- SCF
      9  -2.71473710E+005  4.52977741E+000  -1.34685029E-002     370.09  <-- SCF
     10  -2.71492093E+005  4.64153999E+000   7.18104965E-002     410.28  <-- SCF
     11  -2.71477737E+005  4.53000880E+000  -5.60798785E-002     453.54  <-- SCF
     12  -2.71472167E+005  4.48702874E+000  -2.17584804E-002     492.79  <-- SCF
     13  -2.71472042E+005  4.48717967E+000  -4.85845653E-004     532.16  <-- SCF
     14  -2.71472265E+005  4.49560130E+000   8.68844229E-004     571.64  <-- SCF
     15  -2.71471254E+005  4.48914117E+000  -3.94701019E-003     610.07  <-- SCF
     16  -2.71471173E+005  4.49001434E+000  -3.16730459E-004     649.76  <-- SCF
     17  -2.71471145E+005  4.49087608E+000  -1.12061869E-004     689.34  <-- SCF
     18  -2.71471084E+005  4.49292751E+000  -2.35309636E-004     727.95  <-- SCF
     19  -2.71471073E+005  4.49329556E+000  -4.37240481E-005     766.77  <-- SCF
     20  -2.71471089E+005  4.49467485E+000   6.04222669E-005     805.80  <-- SCF
     21  -2.71471067E+005  4.49569541E+000  -8.56984004E-005     844.38  <-- SCF
     22  -2.71471063E+005  4.49612047E+000  -1.52512931E-005     882.86  <-- SCF
     23  -2.71471070E+005  4.49593686E+000   2.97789668E-005     921.47  <-- SCF
     24  -2.71471060E+005  4.49597363E+000  -3.98671586E-005     959.13  <-- SCF
     25  -2.71471059E+005  4.49595321E+000  -3.54925192E-006     988.99  <-- SCF
     26  -2.71471060E+005  4.49588874E+000   9.95906745E-007    1014.16  <-- SCF
     27  -2.71471059E+005  4.49603990E+000  -1.12319446E-006    1038.78  <-- SCF
     28  -2.71471059E+005  4.49620246E+000  -9.13194179E-007    1063.30  <-- SCF
     29  -2.71471059E+005  4.49631128E+000   3.75252754E-008    1087.83  <-- SCF
------------------------------------------------------------------------ <-- SCF
 
Final energy, E             =  -271465.6104298     eV
Final free energy (E-TS)    =  -271471.0591145     eV
(energies not corrected for finite basis set)
 
NB est. 0K energy (E-0.5TS)      =  -271468.3347721     eV
 
Calculating total energy with cut-off of  895.000 eV.
------------------------------------------------------------------------ <-- SCF
SCF loop      Energy           Fermi           Energy gain       Timer   <-- SCF
                               energy          per atom          (sec)   <-- SCF
------------------------------------------------------------------------ <-- SCF
Initial  -2.71465609E+005  0.00000000E+000                      1100.47  <-- SCF
      1  -2.71471142E+005  4.49843146E+000   2.16123649E-002    1138.79  <-- SCF
      2  -2.71471142E+005  4.49843132E+000   4.17621603E-007    1165.47  <-- SCF
      3  -2.71494026E+005  4.61982169E+000   8.93895203E-002    1206.05  <-- SCF
      4  -2.71473258E+005  4.48889779E+000  -8.11229903E-002    1246.73  <-- SCF
      5  -2.71471113E+005  4.48852190E+000  -8.38172586E-003    1286.37  <-- SCF
      6  -2.71471081E+005  4.48982231E+000  -1.23757876E-004    1326.86  <-- SCF
      7  -2.71471094E+005  4.49580065E+000   5.15534508E-005    1366.29  <-- SCF
      8  -2.71471070E+005  4.49906042E+000  -9.56518806E-005    1405.11  <-- SCF
      9  -2.71471064E+005  4.49759149E+000  -2.08376125E-005    1442.76  <-- SCF
     10  -2.71471063E+005  4.49538822E+000  -6.95177068E-006    1477.73  <-- SCF
     11  -2.71471061E+005  4.49466041E+000  -4.66397462E-006    1502.52  <-- SCF
     12  -2.71471061E+005  4.49495676E+000  -1.31817640E-006    1527.22  <-- SCF
     13  -2.71471060E+005  4.49578630E+000  -3.58496533E-006    1552.55  <-- SCF
     14  -2.71471060E+005  4.49602833E+000  -6.83999996E-007    1577.25  <-- SCF
     15  -2.71471060E+005  4.49620012E+000   1.08081749E-006    1602.80  <-- SCF
     16  -2.71471060E+005  4.49607647E+000  -2.03023880E-006    1627.68  <-- SCF
     17  -2.71471059E+005  4.49610261E+000  -5.48131859E-007    1652.25  <-- SCF
     18  -2.71471059E+005  4.49610883E+000  -2.88058369E-008    1676.81  <-- SCF
------------------------------------------------------------------------ <-- SCF
 
Final energy, E             =  -271465.6125423     eV
Final free energy (E-TS)    =  -271471.0594910     eV
(energies not corrected for finite basis set)
 
NB est. 0K energy (E-0.5TS)      =  -271468.3360167     eV
 
Calculating total energy with cut-off of  900.000 eV.
------------------------------------------------------------------------ <-- SCF
SCF loop      Energy           Fermi           Energy gain       Timer   <-- SCF
                               energy          per atom          (sec)   <-- SCF
------------------------------------------------------------------------ <-- SCF
Initial  -2.71465611E+005  0.00000000E+000                      1689.41  <-- SCF
      1  -2.71471217E+005  4.50351437E+000   2.18998156E-002    1728.89  <-- SCF
      2  -2.71471217E+005  4.50351407E+000   6.56584335E-007    1757.27  <-- SCF
      3  -2.71503934E+005  4.64594400E+000   1.27800484E-001    1800.24  <-- SCF
      4  -2.71474573E+005  4.47891134E+000  -1.14692756E-001    1840.36  <-- SCF
      5  -2.71471206E+005  4.47093920E+000  -1.31492952E-002    1881.20  <-- SCF
      6  -2.71471130E+005  4.48145576E+000  -2.96954207E-004    1922.64  <-- SCF
      7  -2.71471139E+005  4.49658348E+000   3.35185193E-005    1963.25  <-- SCF
      8  -2.71471077E+005  4.50201948E+000  -2.43316460E-004    2002.57  <-- SCF
      9  -2.71471072E+005  4.49892252E+000  -2.01922354E-005    2042.32  <-- SCF
     10  -2.71471063E+005  4.49530225E+000  -3.22231557E-005    2081.30  <-- SCF
     11  -2.71471061E+005  4.49457517E+000  -7.56773229E-006    2118.02  <-- SCF
     12  -2.71471061E+005  4.49479368E+000  -2.04809647E-007    2145.04  <-- SCF
     13  -2.71471061E+005  4.49585700E+000  -3.00407385E-006    2173.43  <-- SCF
     14  -2.71471060E+005  4.49641099E+000  -2.65836591E-006    2199.06  <-- SCF
     15  -2.71471060E+005  4.49636878E+000   1.44943723E-008    2224.44  <-- SCF
     16  -2.71471060E+005  4.49626723E+000   4.69776595E-007    2249.71  <-- SCF
------------------------------------------------------------------------ <-- SCF
 
Final energy, E             =  -271465.6108931     eV
Final free energy (E-TS)    =  -271471.0599499     eV
(energies not corrected for finite basis set)
 
NB est. 0K energy (E-0.5TS)      =  -271468.3354215     eV
 
 For future reference: finite basis dEtot/dlog(Ecut) =      -0.080761eV
 Total energy corrected for finite basis set = -271471.060052 eV
 
+---------------- MEMORY AND SCRATCH DISK ESTIMATES PER PROCESS --------------+
|                                                     Memory          Disk    |
| Model and support data                              723.2 MB         0.0 MB |
| Electronic energy minimisation requirements         158.6 MB         0.0 MB |
| Geometry minimisation requirements                  195.6 MB         0.0 MB |
|                                               ----------------------------- |
| Approx. total storage required per process         1077.4 MB         0.0 MB |
|                                                                             |
| Requirements will fluctuate during execution and may exceed these estimates |
+-----------------------------------------------------------------------------+
 
 
 ************************************** Forces **************************************
 *                                                                                  *
 *                           Cartesian components (eV/A)                            *
 * -------------------------------------------------------------------------------- *
 *                         x                    y                    z              *
 *                                                                                  *
 * Al              1     -0.78697              0.09508              0.68663         *
 * Al              2      2.12771              1.46543             -0.57559         *
 * Al              3     -0.12206             -0.01973              0.06439         *
 * Al              4      0.04427              0.77926             -2.38127         *
 * Al              5     -0.09821             -0.04861             -0.01782         *
 * Al              6     -1.36330             -0.56825             -0.57269         *
 * Al              7     -0.02903             -0.08270             -1.61356         *
 * Al              8      2.30511             -0.11051             -0.81622         *
 * Al              9     -0.82018              0.80522             -1.52759         *
 * Al             10      1.39836             -0.55319              0.97590         *
 * Al             11     -2.20704              1.38839             -0.51094         *
 * Al             12      0.01513             -0.80254             -0.83752         *
 * Al             13     -1.46925             -0.04367             -0.09429         *
 * Al             14      0.81166             -1.62849             -0.82548         *
 * Al             15     -0.85187             -1.59570             -0.67912         *
 * Al             16     -0.05268              0.04438              0.03740         *
 * Al             17     -1.51727              0.09486             -1.50018         *
 * Al             18      2.28269              0.14258              0.76425         *
 * Al             19      0.05138              3.02678             -0.04791         *
 * Al             20     -1.53913             -1.41300             -0.01508         *
 * Al             21     -0.06408              1.49728             -0.02013         *
 * Al             22      0.81717             -0.72246              0.05335         *
 * Al             23     -0.74987              0.00154              0.84308         *
 * Al             24      1.49507              0.77168              0.84247         *
 * Al             25      0.05089             -0.71979             -0.78614         *
 * Al             26      0.08760             -0.17872              1.52065         *
 * Al             27     -0.68809             -0.18694              0.84110         *
 * Al             28     -0.79683             -1.61719              0.78018         *
 * Al             29      0.08666             -0.79465              0.79191         *
 * Al             30     -0.78884             -0.10976             -0.86241         *
 * Al             31      0.77936              0.11462              0.73601         *
 * Al             32     -0.01374              0.04447             -0.02166         *
 * Al             33      0.67617              0.76735             -1.48608         *
 * Al             34     -0.01094              0.80108             -0.74908         *
 * Al             35      0.12121              0.08764              0.01288         *
 * Al             36     -0.00063              0.73297             -0.75097         *
 * Al             37      0.04794             -0.76085              0.68938         *
 * Al             38      0.02317              0.04691             -1.41061         *
 * Al             39      0.02955             -1.62782              0.03634         *
 * Al             40      0.00565             -0.02567             -1.55057         *
 * Al             41      0.09875             -0.76179             -0.81453         *
 * Al             42     -0.86568              0.77192             -1.56594         *
 * Al             43      1.49019              0.79427              0.68617         *
 * Al             44      0.05883             -0.05137              0.01589         *
 * Al             45      0.03625             -0.08746              1.56122         *
 * Al             46     -0.07102             -0.02276              1.50833         *
 * Al             47      0.80959              0.77886             -1.55995         *
 * Al             48     -1.44531              0.04485              0.08638         *
 * Al             49     -1.39374              1.33093              1.33505         *
 * Al             50      1.61987              0.06172             -0.00624         *
 * Al             51      0.81792             -0.01792              0.69596         *
 * Al             52      0.00103              0.79057              0.78923         *
 * Al             53     -0.82905              0.01856              0.90622         *
 * Al             54      1.39778              0.20930              1.44818         *
 * Al             55      0.83026             -0.09413              0.80674         *
 * Al             56     -0.80045             -0.75135              1.53796         *
 * Al             57      0.00155             -1.55226              0.11304         *
 * Al             58     -1.34134              0.15953              1.38427         *
 * Al             59      0.53750              1.37314              0.60911         *
 * Al             60      0.74527             -0.73732              1.52436         *
 * Al             61      0.04694             -0.78309              0.77525         *
 * Al             62      0.02036             -0.82990              0.76907         *
 * Al             63      0.00161              0.01837             -1.49291         *
 * Al             64     -0.82140             -0.09198             -0.68054         *
 * Ni              1     -0.13187              0.16278              0.09569         *
 * Ni              2     -0.12092              0.26944             -0.33773         *
 * Ni              3     -0.17058              0.03493             -0.03478         *
 * Ni              4      0.16121             -0.13835             -0.00922         *
 * Ni              5     -0.09323              0.10421              0.14188         *
 * Ni              6     -0.01811             -0.09230             -0.12004         *
 * Ni              7      0.02989             -0.03727             -0.20753         *
 * Ni              8     -0.10441              0.03340              0.09946         *
 * Ni              9     -0.17652              0.01946             -0.06368         *
 * Ni             10      0.11001              0.00614             -0.10538         *
 * Ni             11      0.10113              0.05915             -0.10104         *
 * Ni             12      0.03655             -0.03298             -0.03340         *
 * Ni             13      0.33274             -0.06986             -0.29870         *
 * Ni             14     -0.03917              0.10751             -0.14424         *
 * Ni             15     -0.08012             -0.11744              0.06717         *
 * Ni             16     -0.06299             -0.14803              0.00681         *
 * Ni             17     -0.01454              0.21904             -0.11422         *
 * Ni             18      0.18148             -0.00783             -0.04694         *
 * Ni             19      0.18324             -0.12111              0.07823         *
 * Ni             20     -0.12630             -0.09336              0.00807         *
 * Ni             21     -0.11264             -0.18062             -0.08615         *
 * Ni             22      0.07045              0.00532              0.10137         *
 * Ni             23     -0.06097             -0.07851             -0.05635         *
 * Ni             24     -0.04891              0.03876              0.03138         *
 * Ni             25      0.02133              0.01740             -0.09588         *
 * Ni             26      0.00590              0.01146             -0.02801         *
 * Ni             27      0.13110             -0.01002             -0.07694         *
 * Ni             28      0.02066             -0.00478             -0.28329         *
 * Ni             29     -0.15674             -0.08282              0.13898         *
 * Ni             30      0.03666             -0.07493             -0.07480         *
 * Ni             31      0.21973              0.19391              0.06690         *
 * Ni             32     -0.12119              0.13363              0.07698         *
 * Ni             33     -0.08901              0.02088              0.08923         *
 * Ni             34     -0.08184             -0.01128             -0.15435         *
 * Ni             35     -0.08958              0.04731             -0.02909         *
 * Ni             36      0.04821             -0.06597              0.00349         *
 * Ni             37      0.01777              0.00808              0.16514         *
 * Ni             38      0.02996              0.18367              0.26905         *
 * Ni             39      0.08722             -0.01173              0.07722         *
 * Ni             40      0.02282             -0.01409             -0.14410         *
 * Ni             41      0.01606              0.00361              0.10550         *
 * Ni             42     -0.06854              0.05294             -0.01168         *
 * Ni             43     -0.13644              0.07089             -0.18393         *
 * Ni             44      0.01143             -0.21927              0.17113         *
 * Ni             45     -0.10869             -0.00201             -0.14268         *
 * Ni             46      0.17639              0.03823              0.15499         *
 * Ni             47      0.12072             -0.07828             -0.02520         *
 * Ni             48     -0.12586              0.03833              0.07804         *
 * Ni             49      0.03209             -0.06448              0.16479         *
 * Ni             50     -0.04009             -0.02064              0.15899         *
 * Ni             51      0.00685             -0.11151             -0.07625         *
 * Ni             52      0.10337              0.05445              0.10753         *
 * Ni             53      0.00447             -0.05029              0.03638         *
 * Ni             54     -0.07490             -0.04277             -0.07323         *
 * Ni             55     -0.11864             -0.03900              0.12489         *
 * Ni             56      0.00977             -0.04623              0.02181         *
 * Ni             57      0.02704              0.10269              0.01232         *
 * Ni             58      0.04810             -0.01536             -0.12945         *
 * Ni             59      0.02013             -0.04022             -0.00506         *
 * Ni             60      0.13833             -0.14427              0.01755         *
 * Ni             61     -0.01691              0.21817             -0.09197         *
 * Ni             62     -0.38505              0.07741              0.36459         *
 * Ni             63     -0.15634              0.24108              0.15134         *
 * Ni             64      0.08521             -0.07240             -0.10484         *
 * Ni             65      0.00678             -0.15455              0.03830         *
 * Ni             66     -0.15283             -0.05155             -0.27040         *
 * Ni             67      0.01704              0.03026              0.09035         *
 * Ni             68     -0.09141              0.00378             -0.22010         *
 * Ni             69      0.02163             -0.05976              0.00768         *
 * Ni             70      0.02636              0.05793             -0.04955         *
 * Ni             71     -0.08341              0.01224              0.03659         *
 * Ni             72      0.13159             -0.03954             -0.12265         *
 * Ni             73      0.11847              0.22293              0.23186         *
 * Ni             74      0.26689             -0.25600              0.18468         *
 * Ni             75     -0.01420             -0.04447             -0.18750         *
 * Ni             76     -0.10504             -0.00247             -0.08847         *
 * Ni             77     -0.05644             -0.02539              0.06153         *
 * Ni             78      0.16007             -0.05516             -0.01761         *
 * Ni             79     -0.02608              0.03485              0.12159         *
 * Ni             80     -0.09358             -0.05614              0.05605         *
 * Ni             81      0.02748             -0.14359             -0.18104         *
 * Ni             82      0.08324             -0.01753              0.01986         *
 * Ni             83     -0.06385              0.05509              0.01695         *
 * Ni             84     -0.08860             -0.00729             -0.18623         *
 * Ni             85      0.13358              0.08064              0.05296         *
 * Ni             86     -0.03400             -0.04323              0.07259         *
 * Ni             87     -0.00949              0.20770             -0.21352         *
 * Ni             88     -0.13375              0.05008             -0.04219         *
 * Ni             89      0.12982              0.09496              0.12448         *
 * Ni             90      0.00072              0.02507             -0.05289         *
 * Ni             91      0.10137             -0.01323             -0.09159         *
 * Ni             92      0.13994             -0.11151              0.05120         *
 * Ni             93     -0.01009              0.06575             -0.08627         *
 * Ni             94     -0.07560              0.09413             -0.04169         *
 * Ni             95      0.01086              0.21551             -0.11165         *
 * Ni             96     -0.01218             -0.17002             -0.18680         *
 * Ni             97     -0.06091              0.01444             -0.12434         *
 * Ni             98      0.06507             -0.11200              0.06301         *
 * Ni             99      0.06311              0.15459             -0.03531         *
 * Ni            100      0.03356             -0.13409              0.06233         *
 * Ni            101     -0.08008              0.04395             -0.11717         *
 * Ni            102      0.00078              0.01318              0.02204         *
 * Ni            103      0.01739              0.03009             -0.07491         *
 * Ni            104      0.03046             -0.07927              0.20208         *
 * Ni            105      0.02709             -0.12042              0.12259         *
 * Ni            106      0.02906             -0.01221              0.09431         *
 * Ni            107     -0.14581             -0.02985              0.04099         *
 * Ni            108     -0.11982             -0.10133             -0.13554         *
 * Ni            109      0.04796              0.10668              0.10373         *
 * Ni            110     -0.10398             -0.05130             -0.13357         *
 * Ni            111     -0.06665              0.01050              0.25097         *
 * Ni            112      0.07480              0.04301              0.14440         *
 * Ni            113      0.09504              0.07605             -0.05219         *
 * Ni            114     -0.04378              0.31997              0.01067         *
 * Ni            115      0.15359             -0.08938             -0.11081         *
 * Ni            116     -0.22960              0.13955             -0.11320         *
 * Ni            117     -0.09126             -0.03989              0.04280         *
 * Ni            118     -0.33955              0.35552             -0.08613         *
 * Ni            119      0.09234              0.01093              0.11389         *
 * Ni            120     -0.00700              0.02358              0.19858         *
 * Ni            121      0.01683              0.12121              0.09753         *
 * Ni            122      0.09552             -0.17269              0.03641         *
 * Ni            123      0.03325             -0.23801             -0.10116         *
 * Ni            124     -0.04540             -0.06021              0.01547         *
 * Ni            125      0.10658             -0.06767              0.10622         *
 * Ni            126     -0.04571              0.04585              0.20370         *
 * Ni            127      0.13624              0.28724             -0.35087         *
 * Ni            128      0.06072             -0.00309              0.07255         *
 * Ni            129     -0.11508             -0.19409             -0.22611         *
 * Ni            130      0.14782             -0.09450              0.19156         *
 * Ni            131      0.05716             -0.01750             -0.12041         *
 * Ni            132     -0.00750             -0.02368             -0.04491         *
 * Ni            133     -0.11487              0.02541              0.20633         *
 * Ni            134      0.19207             -0.23027              0.13991         *
 * Ni            135      0.03232              0.32467              0.12828         *
 * Ni            136     -0.21633             -0.19785              0.21896         *
 * Ni            137      0.05496              0.09375              0.00075         *
 * Ni            138     -0.04133              0.07588             -0.01759         *
 * Ni            139     -0.04394              0.01442              0.04657         *
 * Ni            140     -0.13787             -0.07147              0.01607         *
 * Ni            141     -0.11545              0.07350             -0.00486         *
 * Ni            142      0.13084              0.05792              0.06493         *
 * Ni            143     -0.06408             -0.00674              0.11978         *
 * Ni            144      0.09209              0.08569              0.03665         *
 * Ni            145     -0.01391              0.22972             -0.00689         *
 * Ni            146     -0.10935              0.27074             -0.17195         *
 * Ni            147     -0.06013             -0.09423              0.06785         *
 * Ni            148     -0.00357             -0.24404             -0.13502         *
 * Ni            149      0.11961             -0.01644              0.15908         *
 * Ni            150     -0.02912              0.01687              0.08407         *
 * Ni            151      0.08892              0.01108             -0.00788         *
 * Ni            152      0.12160             -0.03457              0.00467         *
 * Ni            153     -0.16949              0.10682             -0.14044         *
 * Ni            154     -0.24620             -0.02264             -0.01151         *
 * Ni            155      0.11684             -0.06298             -0.17814         *
 * Ni            156      0.32302              0.00179              0.38544         *
 * Ni            157     -0.16417             -0.17667             -0.26515         *
 * Ni            158     -0.02487             -0.01230             -0.00878         *
 * Ni            159      0.15716              0.02874             -0.05655         *
 * Ni            160      0.14992              0.27365              0.14701         *
 * Ni            161      0.06333             -0.00892             -0.15677         *
 * Ni            162      0.00387             -0.05173              0.08249         *
 * Ni            163     -0.36758              0.00154              0.38131         *
 * Ni            164      0.23828             -0.31596              0.20540         *
 * Ni            165     -0.10181              0.03349             -0.16498         *
 * Ni            166      0.12122              0.00340             -0.23485         *
 * Ni            167      0.08078             -0.06606              0.04225         *
 * Ni            168     -0.06300              0.12682             -0.01177         *
 * Ni            169      0.04346              0.06898              0.10243         *
 * Ni            170     -0.03739             -0.02196             -0.04737         *
 * Ni            171     -0.12734              0.10567              0.37404         *
 * Ni            172     -0.19567              0.15976              0.21267         *
 * Ni            173      0.00892             -0.06396             -0.01540         *
 * Ni            174     -0.11052              0.13144              0.05470         *
 * Ni            175      0.14138             -0.01584              0.02295         *
 * Ni            176      0.01164             -0.08555             -0.19206         *
 * Ni            177      0.03869              0.14422             -0.11839         *
 * Ni            178      0.00386              0.05900              0.05452         *
 * Ni            179      0.12723             -0.10487             -0.02156         *
 * Ni            180      0.07541             -0.34890              0.00595         *
 * Ni            181      0.29917             -0.05170             -0.24469         *
 * Ni            182     -0.09390             -0.05508             -0.23324         *
 * Ni            183      0.10172             -0.04242              0.06145         *
 * Ni            184     -0.18275             -0.21737             -0.14872         *
 * Ni            185      0.03068             -0.03331              0.03858         *
 * Ni            186     -0.12724              0.02357             -0.02307         *
 * Ni            187     -0.00880             -0.08100             -0.04168         *
 * Ni            188      0.21162              0.11330             -0.04168         *
 * Ni            189     -0.02101              0.14106             -0.06458         *
 * Ni            190      0.03674             -0.07899             -0.10525         *
 * Ni            191     -0.17520             -0.01559             -0.06751         *
 * Ni            192     -0.00730             -0.03026             -0.06457         *
 *                                                                                  *
 ************************************************************************************
 
 ***************** Stress Tensor *****************
 *                                               *
 *          Cartesian components (GPa)           *
 * --------------------------------------------- *
 *             x             y             z     *
 *                                               *
 *  x     -0.491801     -0.168542      0.194598  *
 *  y     -0.168542     -0.256070      0.103570  *
 *  z      0.194598      0.103570     -0.196699  *
 *                                               *
 *  Pressure:    0.3149                          *
 *                                               *
 *************************************************
 EXP precond LBFGS => estimated nearest neighbor distance :  2.555       A
 EXP precond LBFGS => estimated cutoff distance :  5.110       A
 
 ************************************** Forces **************************************
 *                                                                                  *
 *                           Cartesian components (eV/A)                            *
 * -------------------------------------------------------------------------------- *
 *                         x                    y                    z              *
 *                                                                                  *
 * Al              1     -0.78697              0.09508              0.68663         *
 * Al              2      2.12771              1.46543             -0.57559         *
 * Al              3     -0.12206             -0.01973              0.06439         *
 * Al              4      0.04427              0.77926             -2.38127         *
 * Al              5     -0.09821             -0.04861             -0.01782         *
 * Al              6     -1.36330             -0.56825             -0.57269         *
 * Al              7     -0.02903             -0.08270             -1.61356         *
 * Al              8      2.30511             -0.11051             -0.81622         *
 * Al              9     -0.82018              0.80522             -1.52759         *
 * Al             10      1.39836             -0.55319              0.97590         *
 * Al             11     -2.20704              1.38839             -0.51094         *
 * Al             12      0.01513             -0.80254             -0.83752         *
 * Al             13     -1.46925             -0.04367             -0.09429         *
 * Al             14      0.81166             -1.62849             -0.82548         *
 * Al             15     -0.85187             -1.59570             -0.67912         *
 * Al             16     -0.05268              0.04438              0.03740         *
 * Al             17     -1.51727              0.09486             -1.50018         *
 * Al             18      2.28269              0.14258              0.76425         *
 * Al             19      0.05138              3.02678             -0.04791         *
 * Al             20     -1.53913             -1.41300             -0.01508         *
 * Al             21     -0.06408              1.49728             -0.02013         *
 * Al             22      0.81717             -0.72246              0.05335         *
 * Al             23     -0.74987              0.00154              0.84308         *
 * Al             24      1.49507              0.77168              0.84247         *
 * Al             25      0.05089             -0.71979             -0.78614         *
 * Al             26      0.08760             -0.17872              1.52065         *
 * Al             27     -0.68809             -0.18694              0.84110         *
 * Al             28     -0.79683             -1.61719              0.78018         *
 * Al             29      0.08666             -0.79465              0.79191         *
 * Al             30     -0.78884             -0.10976             -0.86241         *
 * Al             31      0.77936              0.11462              0.73601         *
 * Al             32     -0.01374              0.04447             -0.02166         *
 * Al             33      0.67617              0.76735             -1.48608         *
 * Al             34     -0.01094              0.80108             -0.74908         *
 * Al             35      0.12121              0.08764              0.01288         *
 * Al             36     -0.00063              0.73297             -0.75097         *
 * Al             37      0.04794             -0.76085              0.68938         *
 * Al             38      0.02317              0.04691             -1.41061         *
 * Al             39      0.02955             -1.62782              0.03634         *
 * Al             40      0.00565             -0.02567             -1.55057         *
 * Al             41      0.09875             -0.76179             -0.81453         *
 * Al             42     -0.86568              0.77192             -1.56594         *
 * Al             43      1.49019              0.79427              0.68617         *
 * Al             44      0.05883             -0.05137              0.01589         *
 * Al             45      0.03625             -0.08746              1.56122         *
 * Al             46     -0.07102             -0.02276              1.50833         *
 * Al             47      0.80959              0.77886             -1.55995         *
 * Al             48     -1.44531              0.04485              0.08638         *
 * Al             49     -1.39374              1.33093              1.33505         *
 * Al             50      1.61987              0.06172             -0.00624         *
 * Al             51      0.81792             -0.01792              0.69596         *
 * Al             52      0.00103              0.79057              0.78923         *
 * Al             53     -0.82905              0.01856              0.90622         *
 * Al             54      1.39778              0.20930              1.44818         *
 * Al             55      0.83026             -0.09413              0.80674         *
 * Al             56     -0.80045             -0.75135              1.53796         *
 * Al             57      0.00155             -1.55226              0.11304         *
 * Al             58     -1.34134              0.15953              1.38427         *
 * Al             59      0.53750              1.37314              0.60911         *
 * Al             60      0.74527             -0.73732              1.52436         *
 * Al             61      0.04694             -0.78309              0.77525         *
 * Al             62      0.02036             -0.82990              0.76907         *
 * Al             63      0.00161              0.01837             -1.49291         *
 * Al             64     -0.82140             -0.09198             -0.68054         *
 * Ni              1     -0.13187              0.16278              0.09569         *
 * Ni              2     -0.12092              0.26944             -0.33773         *
 * Ni              3     -0.17058              0.03493             -0.03478         *
 * Ni              4      0.16121             -0.13835             -0.00922         *
 * Ni              5     -0.09323              0.10421              0.14188         *
 * Ni              6     -0.01811             -0.09230             -0.12004         *
 * Ni              7      0.02989             -0.03727             -0.20753         *
 * Ni              8     -0.10441              0.03340              0.09946         *
 * Ni              9     -0.17652              0.01946             -0.06368         *
 * Ni             10      0.11001              0.00614             -0.10538         *
 * Ni             11      0.10113              0.05915             -0.10104         *
 * Ni             12      0.03655             -0.03298             -0.03340         *
 * Ni             13      0.33274             -0.06986             -0.29870         *
 * Ni             14     -0.03917              0.10751             -0.14424         *
 * Ni             15     -0.08012             -0.11744              0.06717         *
 * Ni             16     -0.06299             -0.14803              0.00681         *
 * Ni             17     -0.01454              0.21904             -0.11422         *
 * Ni             18      0.18148             -0.00783             -0.04694         *
 * Ni             19      0.18324             -0.12111              0.07823         *
 * Ni             20     -0.12630             -0.09336              0.00807         *
 * Ni             21     -0.11264             -0.18062             -0.08615         *
 * Ni             22      0.07045              0.00532              0.10137         *
 * Ni             23     -0.06097             -0.07851             -0.05635         *
 * Ni             24     -0.04891              0.03876              0.03138         *
 * Ni             25      0.02133              0.01740             -0.09588         *
 * Ni             26      0.00590              0.01146             -0.02801         *
 * Ni             27      0.13110             -0.01002             -0.07694         *
 * Ni             28      0.02066             -0.00478             -0.28329         *
 * Ni             29     -0.15674             -0.08282              0.13898         *
 * Ni             30      0.03666             -0.07493             -0.07480         *
 * Ni             31      0.21973              0.19391              0.06690         *
 * Ni             32     -0.12119              0.13363              0.07698         *
 * Ni             33     -0.08901              0.02088              0.08923         *
 * Ni             34     -0.08184             -0.01128             -0.15435         *
 * Ni             35     -0.08958              0.04731             -0.02909         *
[...]
             Al 20 -- Ni 134                 0.14        2.60647
            Ni 32  -- Ni 33                  0.04        2.60681
            Ni 189 -- Ni 190                 0.08        2.60727
             Al 3  -- Ni 181                 0.20        2.60735
             Al 24 -- Al 36                  0.25        2.60735
             Al 51 -- Ni 31                  0.18        2.60759
             Al 7  -- Ni 160                 0.17        2.60772
            Ni 101 -- Ni 134                 0.04        2.60783
            Ni 111 -- Ni 112                 0.07        2.60836
            Ni 144 -- Ni 145                -0.04        2.60878
             Al 5  -- Al 9                   0.25        2.60918
             Al 37 -- Ni 71                  0.17        2.60938
            Ni 131 -- Ni 140                 0.07        2.60960
            Ni 163 -- Ni 166                 0.09        2.60963
             Al 57 -- Ni 171                 0.18        2.60970
            Ni 181 -- Ni 183                 0.08        2.60977
            Ni 89  -- Ni 136                 0.11        2.60992
             Al 11 -- Ni 168                 0.20        2.61005
            Ni 116 -- Ni 118                 0.05        2.61006
            Ni 60  -- Ni 112                -0.04        2.61010
             Al 42 -- Ni 112                 0.19        2.61019
            Ni 145 -- Ni 181                 0.06        2.61030
             Al 54 -- Ni 171                 0.18        2.61036
            Ni 22  -- Ni 164                -0.06        2.61041
             Al 32 -- Ni 41                  0.16        2.61057
            Ni 14  -- Ni 65                  0.07        2.61072
            Ni 1   -- Ni 12                  0.07        2.61073
             Al 33 -- Ni 140                 0.17        2.61106
            Ni 183 -- Ni 184                -0.00        2.61111
            Ni 8   -- Ni 44                  0.01        2.61114
            Ni 47  -- Ni 108                 0.06        2.61119
            Ni 73  -- Ni 128                 0.06        2.61125
            Ni 129 -- Ni 131                 0.04        2.61128
            Ni 84  -- Ni 125                 0.01        2.61175
            Ni 100 -- Ni 119                 0.02        2.61179
            Ni 84  -- Ni 86                  0.07        2.61213
            Ni 49  -- Ni 62                  0.09        2.61224
            Ni 118 -- Ni 120                 0.03        2.61233
             Al 49 -- Ni 39                  0.16        2.61269
            Ni 31  -- Ni 173                 0.05        2.61294
             Al 43 -- Ni 122                 0.19        2.61308
            Ni 86  -- Ni 87                  0.03        2.61345
             Al 1  -- Al 6                   0.27        2.61355
            Ni 46  -- Ni 190                 0.01        2.61362
            Ni 52  -- Ni 86                  0.08        2.61363
             Al 50 -- Ni 31                  0.19        2.61388
             Al 6  -- Al 53                  0.26        2.61395
            Ni 25  -- Ni 168                 0.03        2.61440
             Al 27 -- Ni 56                  0.17        2.61498
            Ni 163 -- Ni 179                 0.11        2.61508
             Al 50 -- Ni 30                  0.18        2.61511
             Al 50 -- Ni 176                 0.15        2.61527
            Ni 20  -- Ni 32                 -0.01        2.61556
            Ni 16  -- Ni 158                 0.05        2.61626
            Ni 42  -- Ni 189                -0.03        2.61637
             Al 31 -- Ni 90                  0.17        2.61676
            Ni 122 -- Ni 132                 0.06        2.61775
            Ni 1   -- Ni 3                   0.01        2.61792
             Al 32 -- Al 44                  0.23        2.61813
             Al 57 -- Ni 28                  0.15        2.61831
             Al 52 -- Al 56                  0.28        2.61834
            Ni 16  -- Ni 157                -0.01        2.61843
             Al 33 -- Ni 77                  0.16        2.61908
             Al 23 -- Ni 133                 0.17        2.61951
            Ni 172 -- Ni 175                 0.10        2.61959
            Ni 60  -- Ni 61                  0.01        2.61971
             Al 36 -- Ni 118                 0.15        2.61986
            Ni 147 -- Ni 151                 0.05        2.61992
             Al 7  -- Ni 19                  0.18        2.61996
             Al 47 -- Ni 45                  0.16        2.62010
             Al 8  -- Ni 111                 0.18        2.62013
             Al 61 -- Ni 9                   0.17        2.62033
             Al 62 -- Ni 152                 0.14        2.62064
            Ni 14  -- Ni 24                 -0.01        2.62067
            Ni 73  -- Ni 84                  0.04        2.62079
             Al 58 -- Al 62                  0.24        2.62083
            Ni 98  -- Ni 111                -0.04        2.62085
             Al 40 -- Ni 67                  0.17        2.62200
            Ni 13  -- Ni 32                  0.09        2.62201
             Al 24 -- Ni 77                  0.13        2.62209
            Ni 184 -- Ni 185                 0.05        2.62230
            Ni 2   -- Ni 146                 0.06        2.62241
            Ni 156 -- Ni 165                 0.10        2.62253
            Ni 105 -- Ni 136                 0.08        2.62258
            Ni 13  -- Ni 62                  0.03        2.62277
            Ni 113 -- Ni 121                 0.05        2.62314
            Ni 64  -- Ni 76                  0.10        2.62333
             Al 54 -- Ni 173                 0.14        2.62344
             Al 57 -- Ni 157                 0.18        2.62374
             Al 55 -- Ni 9                   0.17        2.62377
             Al 60 -- Ni 2                   0.16        2.62427
            Ni 96  -- Ni 111                 0.06        2.62428
            Ni 120 -- Ni 122                 0.04        2.62428
             Al 23 -- Ni 132                 0.16        2.62444
             Al 32 -- Al 48                  0.23        2.62444
            Ni 15  -- Ni 19                  0.06        2.62448
            Ni 164 -- Ni 166                 0.10        2.62487
            Ni 97  -- Ni 134                 0.07        2.62489
            Ni 40  -- Ni 185                 0.04        2.62505
             Al 31 -- Ni 54                  0.17        2.62529
             Al 8  -- Ni 157                 0.19        2.62558
             Al 24 -- Al 25                  0.23        2.62561
            Ni 7   -- Ni 53                  0.00        2.62562
             Al 49 -- Ni 180                 0.14        2.62563
             Al 35 -- Ni 67                  0.16        2.62572
            Ni 38  -- Ni 39                  0.06        2.62614
            Ni 99  -- Ni 101                 0.03        2.62620
            Ni 87  -- Ni 89                  0.01        2.62625
            Ni 66  -- Ni 118                 0.01        2.62672
             Al 38 -- Ni 69                  0.15        2.62827
            Ni 98  -- Ni 115                 0.01        2.62835
            Ni 180 -- Ni 181                 0.03        2.62902
            Ni 130 -- Ni 131                -0.02        2.62924
             Al 7  -- Ni 9                   0.17        2.62965
            Ni 39  -- Ni 43                  0.01        2.63026
            Ni 45  -- Ni 82                  0.03        2.63078
            Ni 53  -- Ni 63                  0.07        2.63126
            Ni 133 -- Ni 135                 0.04        2.63142
            Ni 17  -- Ni 30                  0.02        2.63160
             Al 39 -- Ni 68                  0.18        2.63178
             Al 40 -- Al 41                  0.26        2.63273
             Al 42 -- Ni 128                 0.16        2.63339
            Ni 75  -- Ni 91                  0.06        2.63347
            Ni 165 -- Ni 177                 0.04        2.63436
            Ni 27  -- Ni 28                 -0.01        2.63567
            Ni 46  -- Ni 189                -0.02        2.63568
            Ni 29  -- Ni 39                  0.04        2.63674
            Ni 31  -- Ni 43                  0.07        2.63761
            Ni 99  -- Ni 149                 0.02        2.63769
             Al 27 -- Ni 68                  0.18        2.63782
            Ni 159 -- Ni 171                 0.11        2.63791
             Al 26 -- Ni 128                 0.16        2.63799
             Al 9  -- Ni 168                 0.16        2.63844
            Ni 157 -- Ni 171                 0.06        2.63859
            Ni 108 -- Ni 113                 0.02        2.63924
            Ni 66  -- Ni 104                 0.02        2.63946
            Ni 35  -- Ni 38                  0.09        2.64010
            Ni 70  -- Ni 112                 0.02        2.64085
             Al 20 -- Ni 181                 0.13        2.64089
            Ni 114 -- Ni 115                -0.02        2.64157
            Ni 125 -- Ni 135                 0.01        2.64160
             Al 45 -- Ni 55                  0.13        2.64188
             Al 60 -- Ni 13                  0.14        2.64226
            Ni 160 -- Ni 171                 0.07        2.64277
             Al 25 -- Ni 129                 0.12        2.64277
            Ni 29  -- Ni 43                 -0.00        2.64277
             Al 13 -- Ni 9                   0.15        2.64285
             Al 1  -- Al 20                  0.28        2.64346
            Ni 70  -- Ni 126                 0.02        2.64411
             Al 13 -- Ni 150                 0.13        2.64505
            Ni 163 -- Ni 177                 0.08        2.64536
            Ni 36  -- Ni 38                  0.02        2.64536
             Al 55 -- Al 56                  0.25        2.64548
             Al 21 -- Ni 182                 0.13        2.64570
            Ni 78  -- Ni 79                  0.04        2.64572
             Al 36 -- Ni 68                  0.15        2.64576
            Ni 96  -- Ni 98                  0.02        2.64600
             Al 21 -- Ni 135                 0.15        2.64605
            Ni 2   -- Ni 4                   0.04        2.64665
            Ni 48  -- Ni 51                  0.03        2.64677
            Ni 172 -- Ni 188                 0.04        2.64690
             Al 5  -- Ni 171                 0.14        2.64791
            Ni 75  -- Ni 88                  0.02        2.64917
            Ni 5   -- Ni 10                  0.00        2.64979
             Al 45 -- Ni 53                  0.16        2.64999
            Ni 163 -- Ni 165                 0.11        2.65039
             Al 33 -- Ni 73                  0.14        2.65076
            Ni 127 -- Ni 169                 0.00        2.65093
             Al 15 -- Al 62                  0.22        2.65106
             Al 28 -- Ni 63                  0.18        2.65126
            Ni 160 -- Ni 162                 0.07        2.65293
            Ni 117 -- Ni 118                 0.07        2.65426
             Al 38 -- Ni 68                  0.16        2.65460
             Al 61 -- Ni 153                 0.14        2.65499
             Al 50 -- Al 51                  0.23        2.65505
            Ni 38  -- Ni 40                  0.02        2.65577
             Al 51 -- Ni 30                  0.12        2.65577
             Al 40 -- Ni 66                  0.16        2.65627
            Ni 44  -- Ni 46                  0.04        2.65655
            Ni 87  -- Ni 88                  0.06        2.65692
            Ni 124 -- Ni 127                 0.07        2.65694
             Al 16 -- Al 23                  0.24        2.65747
            Ni 163 -- Ni 164                 0.11        2.65763
            Ni 158 -- Ni 160                 0.06        2.65808
             Al 22 -- Ni 131                 0.13        2.65941
            Ni 74  -- Ni 75                  0.09        2.65996
            Ni 164 -- Ni 165                 0.07        2.66072
             Al 30 -- Ni 156                 0.18        2.66091
             Al 31 -- Al 32                  0.22        2.66256
             Al 28 -- Ni 114                 0.17        2.66384
            Ni 110 -- Ni 156                 0.06        2.66436
            Ni 148 -- Ni 158                 0.00        2.66532
            Ni 74  -- Ni 76                  0.07        2.66533
            Ni 61  -- Ni 65                 -0.00        2.66632
            Ni 81  -- Ni 133                 0.06        2.66736
             Al 24 -- Ni 74                  0.18        2.66748
            Ni 15  -- Ni 17                  0.01        2.66770
            Ni 29  -- Ni 31                  0.01        2.66791
            Ni 110 -- Ni 124                 0.03        2.66843
             Al 22 -- Ni 130                 0.13        2.67006
             Al 4  -- Ni 31                  0.18        2.67012
             Al 44 -- Al 45                  0.22        2.67038
             Al 17 -- Al 20                  0.25        2.67089
             Al 36 -- Al 41                  0.21        2.67163
             Al 62 -- Ni 164                 0.13        2.67187
            Ni 87  -- Ni 91                  0.06        2.67310
             Al 63 -- Ni 53                  0.13        2.67561
             Al 12 -- Al 61                  0.23        2.67667
            Ni 111 -- Ni 114                 0.01        2.67821
            Ni 121 -- Ni 156                 0.08        2.67859
            Ni 13  -- Ni 21                 -0.00        2.67965
             Al 48 -- Al 51                  0.21        2.68260
             Al 53 -- Ni 168                 0.13        2.68272
             Al 16 -- Al 21                  0.23        2.68305
            Ni 17  -- Ni 18                 -0.00        2.68742
             Al 26 -- Al 29                  0.21        2.68763
            Ni 22  -- Ni 177                -0.00        2.68766
             Al 20 -- Al 21                  0.21        2.68774
             Al 10 -- Al 59                  0.27        2.68782
             Al 9  -- Ni 157                 0.16        2.68795
             Al 14 -- Ni 156                 0.13        2.69017
             Al 7  -- Al 13                  0.22        2.69165
            Ni 73  -- Ni 74                  0.07        2.69323
             Al 27 -- Al 39                  0.22        2.69401
            Ni 174 -- Ni 179                -0.02        2.69686
             Al 28 -- Al 29                  0.22        2.69802
             Al 44 -- Al 63                  0.21        2.69816
             Al 53 -- Al 54                  0.20        2.70227
             Al 22 -- Al 36                  0.20        2.70233
             Al 17 -- Al 25                  0.20        2.70443
             Al 29 -- Al 41                  0.18        2.70711
            Ni 171 -- Ni 175                 0.09        2.70736
             Al 24 -- Al 26                  0.20        2.70788
             Al 1  -- Al 2                   0.20        2.71222
             Al 22 -- Al 23                  0.20        2.71295
            Ni 115 -- Ni 159                 0.01        2.71629
             Al 12 -- Al 13                  0.21        2.71661
             Al 14 -- Al 30                  0.21        2.71734
             Al 58 -- Al 60                  0.18        2.71739
             Al 25 -- Al 33                  0.21        2.71797
             Al 14 -- Al 15                  0.19        2.71805
             Al 25 -- Al 26                  0.20        2.71866
             Al 58 -- Al 59                  0.26        2.72092
             Al 38 -- Al 39                  0.20        2.72101
            Ni 129 -- Ni 172                 0.03        2.72242
             Al 5  -- Ni 127                 0.11        2.72534
             Al 61 -- Ni 152                 0.10        2.72622
             Al 10 -- Al 14                  0.20        2.72648
             Al 18 -- Al 25                  0.19        2.72684
             Al 47 -- Al 51                  0.20        2.72714
             Al 9  -- Al 11                  0.19        2.72894
            Ni 95  -- Ni 149                -0.03        2.73052
             Al 7  -- Al 56                  0.18        2.73509
             Al 1  -- Al 18                  0.22        2.73590
             Al 9  -- Al 10                  0.21        2.73810
             Al 17 -- Al 33                  0.20        2.74073
             Al 48 -- Ni 94                  0.10        2.74211
             Al 53 -- Al 57                  0.20        2.74310
             Al 24 -- Al 29                  0.20        2.74675
             Al 4  -- Al 52                  0.21        2.75175
             Al 53 -- Ni 157                 0.11        2.75445
             Al 1  -- Al 19                  0.21        2.75609
             Al 49 -- Al 54                  0.20        2.75810
             Al 2  -- Al 54                  0.19        2.75898
             Al 4  -- Al 50                  0.19        2.75983
             Al 6  -- Al 49                  0.22        2.76136
             Al 10 -- Al 15                  0.15        2.76462
             Al 7  -- Al 55                  0.17        2.76530
             Al 50 -- Al 56                  0.19        2.76595
             Al 29 -- Al 42                  0.17        2.76690
             Al 38 -- Al 43                  0.18        2.76806
             Al 8  -- Al 10                  0.15        2.77014
             Al 46 -- Al 64                  0.17        2.77614
             Al 11 -- Al 58                  0.20        2.77728
             Al 34 -- Al 37                  0.19        2.77758
             Al 59 -- Al 60                  0.16        2.77846
             Al 8  -- Al 14                  0.17        2.78350
             Al 40 -- Al 45                  0.19        2.78895
             Al 10 -- Al 58                  0.20        2.79181
             Al 40 -- Ni 63                  0.11        2.79230
             Al 15 -- Al 58                  0.14        2.79729
             Al 24 -- Al 41                  0.15        2.79896
             Al 17 -- Al 19                  0.17        2.79956
             Al 11 -- Al 59                  0.19        2.79987
             Al 47 -- Al 48                  0.17        2.80006
             Al 52 -- Al 57                  0.15        2.80717
             Al 46 -- Al 63                  0.16        2.81224
             Al 39 -- Al 43                  0.15        2.83883
             Al 6  -- Al 54                  0.15        2.84607
             Al 8  -- Al 9                   0.16        2.84694
             Al 28 -- Al 42                  0.14        2.88559
             Al 18 -- Al 19                  0.13        2.89004
             Al 4  -- Al 56                  0.11        2.89836
             Al 2  -- Al 6                   0.14        2.90200
             Al 17 -- Al 18                  0.15        2.90285
             Al 10 -- Al 11                  0.12        2.91319
             Al 2  -- Al 49                  0.11        2.96182
             Al 19 -- Al 20                  0.11        2.96796
======================================================================
 

Writing analysis data to castep.castep_bin

Writing model to castep.check
 
 A BibTeX formatted list of references used in this run has been written to 
 castep.bib
 
Initialisation time =     12.32 s
Calculation time    =  25905.59 s
Finalisation time   =      2.62 s
Total time          =  25920.54 s
Peak Memory Use     = 8319084 kB
  
Overall parallel efficiency rating: Good (78%)                                  
  
Data was distributed by:-
G-vector (48-way); efficiency rating: Good (79%)                                
