 +-------------------------------------------------+
 |                                                 |
 |      CCC   AA    SSS  TTTTT  EEEEE  PPPP        |
 |     C     A  A  S       T    E      P   P       |
 |     C     AAAA   SS     T    EEE    PPPP        |
 |     C     A  A     S    T    E      P           |
 |      CCC  A  A  SSS     T    EEEEE  P           |
 |                                                 |
 +-------------------------------------------------+
 |                                                 |
 | Welcome to Academic Release CASTEP version 22.11|
 | Ab Initio Total Energy Program                  |
 |                                                 |
 | Authors:                                        |
 | M. Segall, M. Probert, C. Pickard, P. Hasnip,   |
 | S. Clark, K. Refson, J. R. Yates, M. Payne      |
 |                                                 |
 | Contributors:                                   |
 | P. Lindan, P. Haynes, J. White, V. Milman,      |
 | N. Govind, M. Gibson, P. Tulip, V. Cocula,      |
 | B. Montanari, D. Quigley, M. Glover,            |
 | L. Bernasconi, A. Perlov, M. Plummer,           |
 | E. McNellis, J. Meyer, J. Gale, D. Jochym       |
 | J. Aarons, B. Walker, R. Gillen, D. Jones       |
 | T. Green, I. J. Bush, C. J. Armstrong,          |
 | E. J. Higgins, E. L. Brown, M. S. McFly,        |
 | J. Wilkins, B-C. Shih, P. J. P. Byrne,          |
 | R. J. Maurer, J. C. Womack, J. Dziedzic,        |
 | A. Bartok-Partay, L. LeBlanc, T. K. Stenczel,   |
 | J. Kermode, S. Sturniolo, B. Shi, B. Durham     |
 | M. Evans, M. J. Smith                           |
 |                                                 |
 | Copyright (c) 2000 - 2021                       |
 |                                                 |
 |     Distributed under license from Cambridge    |
 |     Enterprise for academic use only.           |
 |                                                 |
 | Please cite                                     |
 |                                                 |
 |     "First principles methods using CASTEP"     |
 |                                                 |
 |         Zeitschrift fuer Kristallographie       |
 |           220(5-6) pp. 567-570 (2005)           |
 |                                                 |
 | S. J. Clark, M. D. Segall, C. J. Pickard,       |
 | P. J. Hasnip, M. J. Probert, K. Refson,         |
 | M. C. Payne                                     |
 |                                                 |
 |       in all publications arising from          |
 |              your use of CASTEP                 |
 |                                                 |
 +-------------------------------------------------+
 |                                                 |
 |              http://www.castep.org              |
 |                                                 |
 +-------------------------------------------------+
 
 
 
 Compiled for linux_x86_64_ifort on Wed, 18 Jan 2023 15:42:19 +0000
 from code version b807d1bba+  Castep221_branch  Wed Sep 14 11:18:35 2022 +0100
 Compiler: Intel Fortran 19.0.5.281; Optimisation: fast
 MATHLIBS: Intel MKL(2019.0.5) (LAPACK version 3.7.0)
 FFT Lib : mkl
 Fundamental constants values: CODATA 2014
 
 Run started: Thu, 27 Apr 2023 01:10:03 +0100
 
 Atomic calculation performed for Al: 1s2 2s2 2p6 3s2 3p1
 
 Converged in 52 iterations to an ae energy of -6606.982 eV
 
   ============================================================                
   | Pseudopotential Report - Date of generation 27-04-2023   |                
   ------------------------------------------------------------                
   | Element: Al Ionic charge:  3.00 Level of theory: RPBE    |                
   | Atomic Solver: Koelling-Harmon                           |                
   |                                                          |                
   |               Reference Electronic Structure             |                
   |         Orbital         Occupation         Energy        |                
   |            3s              2.000           -0.284        |                
   |            3p              1.000           -0.100        |                
   |                                                          |                
   |                 Pseudopotential Definition               |                
   |        Beta     l      e      Rc     scheme   norm       |                
   |          1      0   -0.284   2.192     qc      0         |                
   |          2      0    0.250   2.192     qc      0         |                
   |          3      1   -0.100   2.192     qc      0         |                
   |          4      1    0.250   2.192     qc      0         |                
   |          5      2    0.000   2.000     qc      0         |                
   |          6      2    0.250   2.000     qc      0         |                
   |         loc     3    0.000   2.192     pn      0         |                
   |                                                          |                
   | Augmentation charge Rinner = 1.398                       |                
   | Partial core correction Rc = 1.398                       |                
   ------------------------------------------------------------                
   | "3|2.2|2.2|1.4|4|5|5|30:31:32U2U2"                       |                
   ------------------------------------------------------------                
   |      Author: Chris J. Pickard, Cambridge University      |                
   ============================================================                
 
 Atomic calculation performed for Ni: 1s2 2s2 2p6 3s2 3p6 3d8 4s2
 
 Converged in 109 iterations to an ae energy of -41381.414 eV
 
   ============================================================                
   | Pseudopotential Report - Date of generation 27-04-2023   |                
   ------------------------------------------------------------                
   | Element: Ni Ionic charge: 10.00 Level of theory: RPBE    |                
   | Atomic Solver: Koelling-Harmon                           |                
   |                                                          |                
   |               Reference Electronic Structure             |                
   |         Orbital         Occupation         Energy        |                
   |            3d              8.000           -0.324        |                
   |            4s              2.000           -0.204        |                
   |                                                          |                
   |                 Pseudopotential Definition               |                
   |        Beta     l      e      Rc     scheme   norm       |                
   |          1      0   -0.204   2.401     qc      0         |                
   |          2      0    0.250   2.401     qc      0         |                
   |          3      1    0.000   2.401     qc      0         |                
   |          4      1    0.250   2.401     qc      0         |                
   |          5      2   -0.324   1.999     qc      0         |                
   |          6      2    0.250   1.999     qc      0         |                
   |         loc     3    0.000   2.401     pn      0         |                
   |                                                          |                
   | Augmentation charge Rinner = 1.001                       |                
   | Partial core correction Rc = 1.001                       |                
   ------------------------------------------------------------                
   | "3|2.4|2.4|1.0|8|9|10|40:41:32U2U2(qc=5.5)"              |                
   ------------------------------------------------------------                
   |      Author: Chris J. Pickard, Cambridge University      |                
   ============================================================                
 
 Pseudo atomic calculation performed for Al 3s2 3p1
 
 Converged in 13 iterations to a total energy of -107.6593 eV
 
 Pseudo atomic calculation performed for Ni 3d8 4s2
 
 Converged in 41 iterations to a total energy of -1369.7890 eV
 Calculation parallelised over 128 processes.
 Data is distributed by G-vector(128-way)

 ************************************ Title ************************************
 

 ***************************** General Parameters ******************************
  
 output verbosity                               : normal  (1)
 write checkpoint data to                       : castep.check
 type of calculation                            : geometry optimization
 stress calculation                             : off
 density difference calculation                 : off
 electron localisation func (ELF) calculation   : off
 Hirshfeld analysis                             : off
 polarisation (Berry phase) analysis            : off
 molecular orbital projected DOS                : off
 deltaSCF calculation                           : off
 unlimited duration calculation
 timing information                             : on
 memory usage estimate                          : on
 write extra output files                       : on
 write final potential to formatted file        : off
 write final density to formatted file          : off
 write BibTeX reference list                    : on
 write OTFG pseudopotential files               : on
 write electrostatic potential file             : on
 write bands file                               : on
 checkpoint writing                             : both castep_bin and check files
  
 output         length unit                     : A
 output           mass unit                     : amu
 output           time unit                     : ps
 output         charge unit                     : e
 output           spin unit                     : hbar/2
 output         energy unit                     : eV
 output          force unit                     : eV/A
 output       velocity unit                     : A/ps
 output       pressure unit                     : GPa
 output     inv_length unit                     : 1/A
 output      frequency unit                     : cm-1
 output force constant unit                     : eV/A**2
 output         volume unit                     : A**3
 output   IR intensity unit                     : (D/A)**2/amu
 output         dipole unit                     : D
 output         efield unit                     : eV/A/e
 output        entropy unit                     : J/mol/K
 output    efield chi2 unit                     : pm/V
  
 wavefunctions paging                           : none
 random number generator seed                   : randomised (11004921)
 data distribution                              : optimal for this architecture
 optimization strategy                          : maximize speed(+++)

 *********************** Exchange-Correlation Parameters ***********************
  
 using functional                               : revised Perdew Burke Ernzerhof
 relativistic treatment                         : Koelling-Harmon
 DFT+D: Semi-empirical dispersion correction    : off

 ************************* Pseudopotential Parameters **************************
  
 pseudopotential representation                 : reciprocal space
 <beta|phi> representation                      : reciprocal space
 spin-orbit coupling                            : off

 **************************** Basis Set Parameters *****************************
  
 plane wave basis set cut-off                   :   900.0000   eV
 size of standard grid                          :     1.7500
 size of   fine   gmax                          :    26.8966   1/A
 finite basis set correction                    : none

 **************************** Electronic Parameters ****************************
  
 number of  electrons                           :  2130.    
 net charge of system                           :  0.000    
 treating system as non-spin-polarized
 number of bands                                :       1177

 ********************* Electronic Minimization Parameters **********************
  
 Method: Treating system as metallic with density mixing treatment of electrons,
         and number of  SD  steps               :          1
         and number of  CG  steps               :          4
  
 total energy / atom convergence tol.           : 0.1000E-05   eV
 eigen-energy convergence tolerance             : 0.2167E-06   eV
 max force / atom convergence tol.              : ignored
 convergence tolerance window                   :          3   cycles
 max. number of SCF cycles                      :        200
 number of fixed-spin iterations                :         10
 smearing scheme                                : Gaussian
 smearing width                                 : 0.2000       eV
 Fermi energy convergence tolerance             : 0.2721E-13   eV
 periodic dipole correction                     : NONE
 periodically dump wavefunctions to             : castep.wvfn
 dump wavefunctions every                       :          1   SCF cycles

 ************************** Density Mixing Parameters **************************
  
 density-mixing scheme                          : Pulay
 max. length of mixing history                  :         20
 charge density mixing amplitude                : 0.8000    
 cut-off energy for mixing                      :  900.0       eV

 *********************** Population Analysis Parameters ************************
  
 Population analysis with cutoff                :  3.000       A
 Population analysis output                     : summary and pdos components

 ********************** Geometry Optimization Parameters ***********************
  
 optimization method                            : LBFGS
 max. no. of LBFGS updates                      : unbounded
 variable cell method                           : fixed basis quality
 max. number of steps                           :         30
 estimated bulk modulus                         :  500.0       GPa
 estimated <frequency>                          :  1668.       cm-1
 geom line minimiser                            : on
 with line minimiser tolerance                  :     0.4000
 total energy convergence tolerance             : 0.2000E-04   eV/atom
        max ionic |force| tolerance             : 0.5000E-01   eV/A
 max ionic |displacement| tolerance             : 0.1000E-02   A
   max |stress component| tolerance             : 0.1000       GPa
 convergence tolerance window                   :          2   steps
 backup results every                           :          5   steps
 write geom trajectory file                     : on

 *******************************************************************************
  
 
                           -------------------------------
                                      Unit Cell
                           -------------------------------
        Real Lattice(A)                      Reciprocal Lattice(1/A)
    14.4648280     0.0000000     0.0000000        0.434376773   0.000000000   0.000000000
     0.0000000    14.4648280     0.0000000        0.000000000   0.434376773   0.000000000
     0.0000000     0.0000000    14.4648280        0.000000000   0.000000000   0.434376773
 
                       Lattice parameters(A)       Cell Angles
                    a =     14.464828          alpha =   90.000000
                    b =     14.464828          beta  =   90.000000
                    c =     14.464828          gamma =   90.000000
 
                       Current cell volume =          3026.494030       A**3
                                   density =             4.316581   AMU/A**3
                                           =             7.167851     g/cm^3
 
                           -------------------------------
                                     Cell Contents
                           -------------------------------
                         Total number of ions in cell =  255
                      Total number of species in cell =    2
                        Max number of any one species =  195
 
            xxxxxxxxxxxxxxxxxxxxxxxxxxxxxxxxxxxxxxxxxxxxxxxxxxxxxxxxxxxx
            x  Element    Atom        Fractional coordinates of atoms  x
            x            Number           u          v          w      x
            x----------------------------------------------------------x
            x  Al           1         0.318238   0.309363   0.062324   x 
            x  Al           2         0.565962   0.310966   0.061021   x 
            x  Al           3         0.813986   0.311537   0.061062   x 
            x  Al           4         0.317425   0.561342   0.063681   x 
            x  Al           5         0.565284   0.560477   0.061498   x 
            x  Al           6         0.814360   0.560683   0.061074   x 
            x  Al           7         0.322468   0.811634   0.058240   x 
            x  Al           8         0.566472   0.810013   0.060609   x 
            x  Al           9         0.814611   0.809782   0.060700   x 
            x  Al          10         0.319442   0.060272   0.061331   x 
            x  Al          11         0.567328   0.060882   0.060242   x 
            x  Al          12         0.814217   0.060671   0.060727   x 
            x  Al          13         0.317672   0.308479   0.309731   x 
            x  Al          14         0.565097   0.310494   0.311465   x 
            x  Al          15         0.813575   0.311454   0.311339   x 
            x  Al          16         0.321411   0.555873   0.309809   x 
            x  Al          17         0.564096   0.560236   0.311482   x 
            x  Al          18         0.813798   0.560619   0.311382   x 
            x  Al          19         0.324528   0.815840   0.311231   x 
            x  Al          20         0.566481   0.810423   0.311331   x 
            x  Al          21         0.814018   0.809838   0.311223   x 
            x  Al          22         0.321528   0.059533   0.307357   x 
            x  Al          23         0.567191   0.060873   0.311162   x 
            x  Al          24         0.813774   0.060771   0.311116   x 
            x  Al          25         0.320010   0.308268   0.559786   x 
            x  Al          26         0.563877   0.311701   0.560910   x 
            x  Al          27         0.814054   0.311697   0.561215   x 
            x  Al          28         0.317661   0.562521   0.559397   x 
            x  Al          29         0.563171   0.560177   0.560738   x 
            x  Al          30         0.814399   0.560802   0.561356   x 
            x  Al          31         0.321940   0.810794   0.563977   x 
            x  Al          32         0.566027   0.809613   0.561700   x 
            x  Al          33         0.814581   0.809676   0.561532   x 
            x  Al          34         0.324422   0.059970   0.566951   x 
            x  Al          35         0.566889   0.060724   0.561809   x 
            x  Al          36         0.814293   0.060757   0.561418   x 
            x  Al          37         0.319390   0.310662   0.812318   x 
            x  Al          38         0.565002   0.311923   0.811311   x 
            x  Al          39         0.814593   0.311889   0.810799   x 
            x  Al          40         0.316670   0.560974   0.813044   x 
            x  Al          41         0.564557   0.560182   0.811178   x 
            x  Al          42         0.814653   0.560716   0.810879   x 
            x  Al          43         0.317900   0.810293   0.811946   x 
            x  Al          44         0.566641   0.809385   0.811371   x 
            x  Al          45         0.814884   0.809656   0.811055   x 
            x  Al          46         0.319756   0.060112   0.810622   x 
            x  Al          47         0.567371   0.060934   0.811764   x 
            x  Al          48         0.814828   0.060656   0.810968   x 
            x  Al          49         0.076036   0.184209   0.932369   x 
            x  Al          50         0.069036   0.937375   0.937179   x 
            x  Al          51         0.065901   0.692166   0.942116   x 
            x  Al          52         0.073500   0.686050   0.686395   x 
            x  Al          53         0.080089   0.430257   0.682099   x 
            x  Al          54         0.075572   0.557277   0.818312   x 
            x  Al          55         0.065136   0.062967   0.310468   x 
            x  Al          56         0.187872   0.059620   0.443049   x 
            x  Al          57         0.180944   0.815939   0.437734   x 
            x  Al          58         0.179874   0.678455   0.308656   x 
            x  Al          59         0.076670   0.432654   0.433369   x 
            x  Al          60         0.181770   0.818457   0.183792   x 
            x  Ni           1         0.315809   0.433613   0.185303   x 
            x  Ni           2         0.442069   0.309589   0.185776   x 
            x  Ni           3         0.441371   0.435501   0.061846   x 
            x  Ni           4         0.564845   0.435626   0.186871   x 
            x  Ni           5         0.689660   0.311247   0.186299   x 
            x  Ni           6         0.689632   0.436071   0.061256   x 
            x  Ni           7         0.813659   0.436180   0.186380   x 
            x  Ni           8         0.937572   0.311248   0.186228   x 
            x  Ni           9         0.938194   0.436105   0.061341   x 
            x  Ni          10         0.311902   0.689432   0.189578   x 
            x  Ni          11         0.440804   0.561144   0.185944   x 
            x  Ni          12         0.440930   0.685376   0.062235   x 
            x  Ni          13         0.566079   0.685320   0.186269   x 
            x  Ni          14         0.689356   0.560425   0.186484   x 
            x  Ni          15         0.690076   0.684991   0.061016   x 
            x  Ni          16         0.814063   0.685062   0.186001   x 
            x  Ni          17         0.938428   0.560580   0.186190   x 
            x  Ni          18         0.939299   0.685295   0.060814   x 
            x  Ni          19         0.316384   0.934527   0.184182   x 
            x  Ni          20         0.443014   0.810974   0.185317   x 
            x  Ni          21         0.443581   0.936150   0.060013   x 
            x  Ni          22         0.567440   0.935556   0.185451   x 
            x  Ni          23         0.690205   0.810028   0.185971   x 
            x  Ni          24         0.690764   0.935132   0.060557   x 
            x  Ni          25         0.813916   0.935084   0.185718   x 
            x  Ni          26         0.938144   0.810025   0.185740   x 
            x  Ni          27         0.938263   0.935261   0.060886   x 
            x  Ni          28         0.316400   0.184622   0.185462   x 
            x  Ni          29         0.443445   0.060169   0.184745   x 
            x  Ni          30         0.442270   0.185262   0.060692   x 
            x  Ni          31         0.566708   0.185656   0.185734   x 
            x  Ni          32         0.690642   0.060722   0.185815   x 
            x  Ni          33         0.690568   0.186305   0.060786   x 
            x  Ni          34         0.813675   0.186289   0.186057   x 
            x  Ni          35         0.937199   0.060839   0.185640   x 
            x  Ni          36         0.937663   0.186118   0.061097   x 
            x  Ni          37         0.201161   0.434537   0.555072   x 
            x  Ni          38         0.437865   0.310510   0.435237   x 
            x  Ni          39         0.439118   0.433756   0.312334   x 
            x  Ni          40         0.563690   0.435596   0.436294   x 
            x  Ni          41         0.689251   0.311370   0.436530   x 
            x  Ni          42         0.688920   0.435939   0.311579   x 
            x  Ni          43         0.813611   0.436297   0.436346   x 
            x  Ni          44         0.937798   0.311509   0.435815   x 
            x  Ni          45         0.938004   0.436215   0.311236   x 
            x  Ni          46         0.311310   0.689347   0.431562   x 
            x  Ni          47         0.437467   0.560122   0.435491   x 
            x  Ni          48         0.441226   0.686040   0.310848   x 
            x  Ni          49         0.564850   0.684795   0.436216   x 
            x  Ni          50         0.688877   0.560388   0.436392   x 
            x  Ni          51         0.689581   0.685053   0.311461   x 
            x  Ni          52         0.814049   0.685017   0.436622   x 
            x  Ni          53         0.938556   0.560748   0.436201   x 
            x  Ni          54         0.938078   0.685055   0.311131   x 
            x  Ni          55         0.315319   0.936895   0.438297   x 
            x  Ni          56         0.442053   0.811331   0.436838   x 
            x  Ni          57         0.444457   0.936864   0.311012   x 
            x  Ni          58         0.567239   0.935509   0.436760   x 
            x  Ni          59         0.689935   0.809829   0.436582   x 
            x  Ni          60         0.690364   0.935292   0.311254   x 
            x  Ni          61         0.813997   0.935060   0.436451   x 
            x  Ni          62         0.938303   0.809824   0.436213   x 
            x  Ni          63         0.937000   0.935237   0.310580   x 
            x  Ni          64         0.316232   0.181015   0.436028   x 
            x  Ni          65         0.442434   0.059782   0.436646   x 
            x  Ni          66         0.442460   0.184581   0.310658   x 
            x  Ni          67         0.565642   0.186218   0.436230   x 
            x  Ni          68         0.690439   0.060895   0.436650   x 
            x  Ni          69         0.690008   0.186137   0.311339   x 
            x  Ni          70         0.813572   0.186441   0.436389   x 
            x  Ni          71         0.937220   0.061059   0.435703   x 
            x  Ni          72         0.937333   0.186342   0.310966   x 
            x  Ni          73         0.315571   0.436011   0.685576   x 
            x  Ni          74         0.440906   0.311337   0.686551   x 
            x  Ni          75         0.436401   0.435794   0.558594   x 
            x  Ni          76         0.563621   0.436320   0.685307   x 
            x  Ni          77         0.689437   0.311902   0.685965   x 
            x  Ni          78         0.688980   0.436194   0.561124   x 
            x  Ni          79         0.814394   0.436606   0.686008   x 
            x  Ni          80         0.938437   0.311601   0.685849   x 
            x  Ni          81         0.938623   0.436678   0.560870   x 
            x  Ni          82         0.314650   0.685582   0.687201   x 
            x  Ni          83         0.439224   0.560755   0.686272   x 
            x  Ni          84         0.440153   0.685582   0.560448   x 
            x  Ni          85         0.565129   0.684456   0.686156   x 
            x  Ni          86         0.689204   0.560350   0.685856   x 
            x  Ni          87         0.689395   0.684705   0.561282   x 
            x  Ni          88         0.814632   0.684940   0.686192   x 
            x  Ni          89         0.940094   0.561245   0.686337   x 
            x  Ni          90         0.939744   0.685320   0.561587   x 
            x  Ni          91         0.317705   0.934731   0.688187   x 
            x  Ni          92         0.442471   0.809631   0.687771   x 
            x  Ni          93         0.444059   0.935140   0.562531   x 
            x  Ni          94         0.567329   0.934822   0.687096   x 
            x  Ni          95         0.690314   0.809506   0.686290   x 
            x  Ni          96         0.690466   0.935107   0.561708   x 
            x  Ni          97         0.814762   0.934861   0.686365   x 
            x  Ni          98         0.939738   0.809724   0.686507   x 
            x  Ni          99         0.938280   0.934953   0.561090   x 
            x  Ni         100         0.318520   0.185226   0.687188   x 
            x  Ni         101         0.444691   0.060350   0.688330   x 
            x  Ni         102         0.443424   0.185349   0.561598   x 
            x  Ni         103         0.566429   0.186740   0.686849   x 
            x  Ni         104         0.690552   0.060868   0.686419   x 
            x  Ni         105         0.689557   0.186559   0.561409   x 
            x  Ni         106         0.814024   0.186578   0.686006   x 
            x  Ni         107         0.937914   0.060880   0.686180   x 
            x  Ni         108         0.937870   0.186439   0.560764   x 
            x  Ni         109         0.315709   0.435826   0.939167   x 
            x  Ni         110         0.440999   0.310718   0.937010   x 
            x  Ni         111         0.439603   0.436407   0.811866   x 
            x  Ni         112         0.565117   0.436067   0.936287   x 
            x  Ni         113         0.690149   0.311633   0.935814   x 
            x  Ni         114         0.689408   0.436251   0.810733   x 
            x  Ni         115         0.814308   0.436421   0.935854   x 
            x  Ni         116         0.938136   0.311368   0.936310   x 
            x  Ni         117         0.939339   0.436795   0.811120   x 
            x  Ni         118         0.315554   0.686371   0.937117   x 
            x  Ni         119         0.440205   0.560725   0.937387   x 
            x  Ni         120         0.440735   0.684738   0.811695   x 
            x  Ni         121         0.565634   0.684617   0.936340   x 
            x  Ni         122         0.689840   0.560415   0.936042   x 
            x  Ni         123         0.689965   0.684591   0.811033   x 
            x  Ni         124         0.814690   0.685083   0.935860   x 
            x  Ni         125         0.939370   0.560993   0.936037   x 
            x  Ni         126         0.939911   0.685329   0.811172   x 
            x  Ni         127         0.316748   0.936181   0.935144   x 
            x  Ni         128         0.442911   0.810235   0.935353   x 
            x  Ni         129         0.443129   0.935032   0.811795   x 
            x  Ni         130         0.567303   0.935415   0.935695   x 
            x  Ni         131         0.690430   0.809692   0.935890   x 
            x  Ni         132         0.691067   0.935047   0.811135   x 
            x  Ni         133         0.814811   0.934878   0.935777   x 
            x  Ni         134         0.939686   0.809931   0.935876   x 
            x  Ni         135         0.939375   0.934808   0.811362   x 
            x  Ni         136         0.316121   0.184296   0.936405   x 
            x  Ni         137         0.442537   0.060708   0.935712   x 
            x  Ni         138         0.442324   0.186081   0.812064   x 
            x  Ni         139         0.566651   0.186334   0.936004   x 
            x  Ni         140         0.691186   0.060846   0.935711   x 
            x  Ni         141         0.690558   0.186744   0.811035   x 
            x  Ni         142         0.814292   0.186412   0.935810   x 
            x  Ni         143         0.938180   0.060708   0.936236   x 
            x  Ni         144         0.938154   0.186331   0.811045   x 
            x  Ni         145         0.059906   0.434057   0.183355   x 
            x  Ni         146         0.190259   0.307921   0.185845   x 
            x  Ni         147         0.064323   0.559913   0.059984   x 
            x  Ni         148         0.067341   0.306274   0.059637   x 
            x  Ni         149         0.062450   0.686570   0.181849   x 
            x  Ni         150         0.189698   0.560054   0.184539   x 
            x  Ni         151         0.192016   0.688807   0.063996   x 
            x  Ni         152         0.064016   0.815091   0.060736   x 
            x  Ni         153         0.061306   0.940839   0.183702   x 
            x  Ni         154         0.065994   0.812582   0.308295   x 
            x  Ni         155         0.192215   0.937826   0.060450   x 
            x  Ni         156         0.063140   0.063587   0.057884   x 
            x  Ni         157         0.062053   0.181943   0.183872   x 
            x  Ni         158         0.190634   0.059161   0.185936   x 
            x  Ni         159         0.192457   0.183760   0.061696   x 
            x  Ni         160         0.198001   0.308734   0.433472   x 
            x  Ni         161         0.193234   0.434616   0.308434   x 
            x  Ni         162         0.067393   0.308807   0.309370   x 
            x  Ni         163         0.064686   0.680381   0.436379   x 
            x  Ni         164         0.195864   0.558821   0.431938   x 
            x  Ni         165         0.061744   0.554503   0.307057   x 
            x  Ni         166         0.062660   0.939815   0.438147   x 
            x  Ni         167         0.191408   0.938366   0.312383   x 
            x  Ni         168         0.066542   0.186942   0.437472   x 
            x  Ni         169         0.191260   0.181241   0.311018   x 
            x  Ni         170         0.198015   0.308767   0.685230   x 
            x  Ni         171         0.071360   0.312953   0.559245   x 
            x  Ni         172         0.193934   0.560752   0.686382   x 
            x  Ni         173         0.192301   0.686462   0.558430   x 
            x  Ni         174         0.070761   0.554715   0.560721   x 
            x  Ni         175         0.065891   0.933856   0.686050   x 
            x  Ni         176         0.193211   0.811103   0.684426   x 
            x  Ni         177         0.191732   0.935448   0.562966   x 
            x  Ni         178         0.063570   0.807515   0.561440   x 
            x  Ni         179         0.068555   0.189008   0.687751   x 
            x  Ni         180         0.193766   0.060009   0.685003   x 
            x  Ni         181         0.193166   0.184419   0.562142   x 
            x  Ni         182         0.065762   0.062269   0.565543   x 
            x  Ni         183         0.067772   0.433424   0.937381   x 
            x  Ni         184         0.195278   0.309663   0.937595   x 
            x  Ni         185         0.195223   0.434583   0.813217   x 
            x  Ni         186         0.071361   0.311605   0.811023   x 
            x  Ni         187         0.190031   0.433846   0.063587   x 
            x  Ni         188         0.191081   0.686410   0.813966   x 
            x  Ni         189         0.192778   0.562006   0.941759   x 
            x  Ni         190         0.192349   0.812580   0.938331   x 
            x  Ni         191         0.192168   0.935854   0.810398   x 
            x  Ni         192         0.068726   0.811218   0.810678   x 
            x  Ni         193         0.067893   0.060159   0.808774   x 
            x  Ni         194         0.193717   0.059439   0.935594   x 
            x  Ni         195         0.194544   0.184687   0.809705   x 
            xxxxxxxxxxxxxxxxxxxxxxxxxxxxxxxxxxxxxxxxxxxxxxxxxxxxxxxxxxxx
 
 
                         No user defined ionic velocities
 
                           -------------------------------
                                   Details of Species
                           -------------------------------
 
                               Mass of species in AMU
                                    Al   26.9815400
                                    Ni   58.6934000
 
                          Electric Quadrupole Moment (Barn)
                                    Al    0.1466000 Isotope 27
                                    Ni    0.1620000 Isotope 61
 
                          Files used for pseudopotentials:
                                    Al 3|2.2|2.2|1.4|4|5|5|30:31:32U2U2
                                    Ni 3|2.4|2.4|1.0|8|9|10|40:41:32U2U2(qc=5.5)
 
                           -------------------------------
                              k-Points For BZ Sampling
                           -------------------------------
                       MP grid size for SCF calculation is  1  1  1
                            with an offset of   0.000  0.000  0.000
                       Number of kpoints used =             1
 
                           -------------------------------
                               Symmetry and Constraints
                           -------------------------------
 
                      Maximum deviation from symmetry =  0.00000         ANG
 
                      Number of symmetry operations   =           1
                      Number of ionic constraints     =           3
                      Point group of crystal =     1: C1, 1, 1
                      Space group of crystal =     1: P1, P 1
 
             Set iprint > 1 for details on symmetry rotations/translations
 
                         Centre of mass is constrained
             Set iprint > 1 for details of linear ionic constraints
 
                         Number of cell constraints= 6
                         Cell constraints are:  0 0 0 0 0 0
 
                         External pressure/stress (GPa)
                          0.00000   0.00000   0.00000
                                    0.00000   0.00000
                                              0.00000
 
+---------------- MEMORY AND SCRATCH DISK ESTIMATES PER PROCESS --------------+
|                                                     Memory          Disk    |
| Baseline code, static data and system overhead      861.0 MB         0.0 MB |
| BLAS internal memory storage                          0.0 MB         0.0 MB |
| Model and support data                              335.5 MB         0.0 MB |
| Electronic energy minimisation requirements          68.2 MB         0.0 MB |
| Force calculation requirements                        1.7 MB         0.0 MB |
|                                               ----------------------------- |
| Approx. total storage required per process         1264.8 MB         0.0 MB |
|                                                                             |
| Requirements will fluctuate during execution and may exceed these estimates |
+-----------------------------------------------------------------------------+
Calculating approximate eigenstates for fixed initial Hamiltonian
Cut-off for approx. calculation is  550.359 eV
Resetting cut-off to  900.000 eV
Calculating total energy with cut-off of  900.000 eV.
------------------------------------------------------------------------ <-- SCF
SCF loop      Energy           Fermi           Energy gain       Timer   <-- SCF
                               energy          per atom          (sec)   <-- SCF
------------------------------------------------------------------------ <-- SCF
Initial  -2.75749248E+005  0.00000000E+000                      1409.50  <-- SCF
      1  -2.75117352E+005  3.08461501E+000  -2.47802268E+000    1442.30  <-- SCF
      2  -2.75292115E+005  2.97350536E+000   6.85344432E-001    1479.12  <-- SCF
      3  -2.76527860E+005  8.86344494E+000   4.84605949E+000    1524.05  <-- SCF
      4  -2.76587184E+005  8.88795032E+000   2.32642934E-001    1560.54  <-- SCF
      5  -2.75398144E+005  6.39333122E+000  -4.66290359E+000    1622.08  <-- SCF
      6  -2.75572061E+005  6.37034931E+000   6.82030177E-001    1656.71  <-- SCF
      7  -2.75253548E+005  4.84334242E+000  -1.24907252E+000    1696.64  <-- SCF
      8  -2.75195356E+005  4.37285353E+000  -2.28203734E-001    1732.61  <-- SCF
      9  -2.75186254E+005  4.31476285E+000  -3.56942844E-002    1769.09  <-- SCF
     10  -2.75189894E+005  4.38076708E+000   1.42749649E-002    1803.13  <-- SCF
     11  -2.75188137E+005  4.34479843E+000  -6.88865974E-003    1837.96  <-- SCF
     12  -2.75183325E+005  4.31606157E+000  -1.88721994E-002    1872.64  <-- SCF
     13  -2.75186083E+005  4.32184056E+000   1.08151330E-002    1907.32  <-- SCF
     14  -2.75185476E+005  4.29215096E+000  -2.38060535E-003    1941.46  <-- SCF
     15  -2.75182390E+005  4.26627506E+000  -1.21025048E-002    1975.30  <-- SCF
     16  -2.75182507E+005  4.26727786E+000   4.60759315E-004    2009.54  <-- SCF
     17  -2.75182519E+005  4.26878090E+000   4.77526262E-005    2043.10  <-- SCF
     18  -2.75181973E+005  4.26724042E+000  -2.14401400E-003    2088.60  <-- SCF
     19  -2.75181925E+005  4.26828371E+000  -1.84696002E-004    2131.23  <-- SCF
     20  -2.75181952E+005  4.26814866E+000   1.03484210E-004    2165.13  <-- SCF
     21  -2.75181894E+005  4.26860252E+000  -2.28264067E-004    2197.55  <-- SCF
     22  -2.75181893E+005  4.26896293E+000  -3.31200922E-006    2244.95  <-- SCF
     23  -2.75181901E+005  4.26950263E+000   3.27876790E-005    2286.20  <-- SCF
     24  -2.75181892E+005  4.27076899E+000  -3.59873738E-005    2328.26  <-- SCF
     25  -2.75181891E+005  4.27067067E+000  -4.73383888E-006    2373.61  <-- SCF
     26  -2.75181891E+005  4.27020954E+000   2.92792708E-006    2402.59  <-- SCF
     27  -2.75181890E+005  4.26990050E+000  -6.16869253E-006    2428.08  <-- SCF
     28  -2.75181890E+005  4.26977066E+000  -2.80283945E-007    2475.10  <-- SCF
     29  -2.75181890E+005  4.26960446E+000  -9.51461628E-007    2497.95  <-- SCF
     30  -2.75181889E+005  4.26954141E+000  -8.11927792E-007    2522.41  <-- SCF
     31  -2.75181889E+005  4.26939808E+000   4.82896847E-008    2545.10  <-- SCF
------------------------------------------------------------------------ <-- SCF
 
Final energy, E             =  -275176.2300557     eV
Final free energy (E-TS)    =  -275181.8893931     eV
(energies not corrected for finite basis set)
 
NB est. 0K energy (E-0.5TS)      =  -275179.0597244     eV
 

Writing analysis data to castep.castep_bin

Writing model to castep.check
 
+---------------- MEMORY AND SCRATCH DISK ESTIMATES PER PROCESS --------------+
|                                                     Memory          Disk    |
| Model and support data                              346.2 MB         0.0 MB |
| Electronic energy minimisation requirements          68.2 MB         0.0 MB |
| Geometry minimisation requirements                   83.0 MB         0.0 MB |
|                                               ----------------------------- |
| Approx. total storage required per process          497.4 MB         0.0 MB |
|                                                                             |
| Requirements will fluctuate during execution and may exceed these estimates |
+-----------------------------------------------------------------------------+
 
 
 ************************************** Forces **************************************
 *                                                                                  *
 *                           Cartesian components (eV/A)                            *
 * -------------------------------------------------------------------------------- *
 *                         x                    y                    z              *
 *                                                                                  *
 * Al              1     -0.15820             -0.00085             -0.02685         *
 * Al              2      0.01157             -0.00751              0.00183         *
 * Al              3      0.04942              0.00152              0.00984         *
 * Al              4     -0.12411             -0.01975              0.02034         *
 * Al              5      0.03792             -0.00986              0.00651         *
 * Al              6      0.01791             -0.01775              0.01755         *
 * Al              7     -0.08352              0.00981             -0.11391         *
 * Al              8      0.01858              0.01544             -0.00601         *
 * Al              9      0.05216              0.01102              0.04348         *
 * Al             10     -0.15860              0.02230             -0.01844         *
 * Al             11      0.01973              0.00641             -0.01484         *
 * Al             12      0.02553              0.00966              0.01926         *
 * Al             13     -0.14562              0.08974              0.02801         *
 * Al             14      0.06070              0.01317              0.00764         *
 * Al             15      0.04306             -0.00884             -0.01839         *
 * Al             16     -0.11367             -0.18057              0.05221         *
 * Al             17      0.04621             -0.02758              0.00197         *
 * Al             18      0.04156              0.00053             -0.02960         *
 * Al             19      0.37929              0.09579             -0.01010         *
 * Al             20     -0.00254             -0.00898             -0.01046         *
 * Al             21      0.05309              0.02356             -0.00262         *
 * Al             22     -0.04419             -0.01323             -0.12503         *
 * Al             23      0.01858              0.02191             -0.00154         *
 * Al             24      0.07704             -0.01199              0.00359         *
 * Al             25     -0.20887              0.01064             -0.02472         *
 * Al             26      0.06960              0.02087             -0.01098         *
 * Al             27      0.04479             -0.03448              0.01539         *
 * Al             28     -0.17112             -0.02974             -0.03750         *
 * Al             29      0.06841             -0.03273             -0.00117         *
 * Al             30      0.01449             -0.00793              0.00586         *
 * Al             31     -0.06646              0.03420              0.12297         *
 * Al             32      0.04072              0.01219              0.01962         *
 * Al             33      0.06846              0.03115             -0.02329         *
 * Al             34     -0.01193             -0.00140              0.12900         *
 * Al             35      0.01786             -0.00368              0.00583         *
 * Al             36      0.04537             -0.00005              0.00297         *
 * Al             37     -0.12557             -0.04577              0.00644         *
 * Al             38      0.03157             -0.02804             -0.00305         *
 * Al             39      0.02258             -0.01813             -0.01279         *
 * Al             40     -0.11048             -0.01881             -0.00146         *
 * Al             41      0.01620              0.00170             -0.00594         *
 * Al             42      0.03439             -0.02254              0.00164         *
 * Al             43     -0.12332              0.04941             -0.00408         *
 * Al             44      0.02976              0.02683             -0.00736         *
 * Al             45      0.03964              0.03253             -0.02796         *
 * Al             46     -0.17419              0.02153              0.01042         *
 * Al             47      0.02653             -0.00047              0.01285         *
 * Al             48      0.04382              0.01574             -0.04300         *
 * Al             49     -0.93902              0.15530              0.12042         *
 * Al             50     -0.40959             -0.03755             -0.20776         *
 * Al             51      0.00540              0.04217              0.15091         *
 * Al             52     -0.62901              0.30710             -0.54637         *
 * Al             53     -0.83295             -0.11588             -0.25320         *
 * Al             54     -0.70453             -0.42928              0.06566         *
 * Al             55     -0.86993             -0.15912             -0.45274         *
 * Al             56     -0.07215              0.13424              0.13785         *
 * Al             57     -0.24629              0.06956              0.17916         *
 * Al             58     -0.23768             -0.17013             -0.01683         *
 * Al             59     -0.87442              0.09885              0.05153         *
 * Al             60     -0.16249              0.06011             -0.20437         *
 * Ni              1      0.03137              0.06790              0.06778         *
 * Ni              2     -0.04655             -0.00039              0.04431         *
 * Ni              3     -0.00001              0.01261              0.00785         *
 * Ni              4      0.01955             -0.01093             -0.05763         *
 * Ni              5      0.03916             -0.00954              0.00526         *
 * Ni              6      0.00683              0.00421              0.00618         *
 * Ni              7      0.04839             -0.00661             -0.02695         *
 * Ni              8      0.31637             -0.14968             -0.02358         *
 * Ni              9      0.27208             -0.08743             -0.14639         *
 * Ni             10      0.11892              0.21638              0.31165         *
 * Ni             11     -0.01631             -0.01767              0.03971         *
 * Ni             12      0.01281              0.00580             -0.00069         *
 * Ni             13     -0.06648             -0.01901              0.00793         *
 * Ni             14      0.04214              0.00356              0.00055         *
 * Ni             15      0.02028              0.00047              0.00811         *
 * Ni             16      0.04545              0.00244              0.06508         *
 * Ni             17      0.11075             -0.02575             -0.11290         *
 * Ni             18     -0.00427              0.02413              0.09484         *
 * Ni             19      0.10464             -0.15491              0.18894         *
 * Ni             20     -0.06433             -0.00471              0.00999         *
 * Ni             21     -0.09628             -0.02301              0.04083         *
 * Ni             22     -0.06541              0.00296              0.02233         *
 * Ni             23      0.04164             -0.00634             -0.00572         *
 * Ni             24      0.03405              0.00980             -0.00292         *
 * Ni             25      0.04294             -0.00188              0.04409         *
 * Ni             26      0.20520              0.11753             -0.06833         *
 * Ni             27      0.17198              0.10804              0.04666         *
 * Ni             28      0.01667             -0.03053              0.08337         *
 * Ni             29      0.03868              0.03029              0.00124         *
 * Ni             30     -0.02069              0.00065              0.02670         *
 * Ni             31     -0.02981              0.02112              0.01254         *
 * Ni             32      0.01946              0.00711             -0.00819         *
 * Ni             33      0.01545             -0.00334              0.00888         *
 * Ni             34      0.05126              0.00326              0.02333         *
 * Ni             35      0.04066              0.05813             -0.11721         *
 * Ni             36      0.29328              0.02395             -0.04086         *
 * Ni             37     -0.10867             -0.03868              0.23550         *
 * Ni             38      0.17672              0.01587             -0.00561         *
 * Ni             39      0.12373             -0.00925             -0.04389         *
 * Ni             40     -0.09738              0.00647             -0.01603         *
 * Ni             41      0.04078              0.00916             -0.00347         *
 * Ni             42      0.03562             -0.00495             -0.00027         *
 * Ni             43      0.09505             -0.00052             -0.02189         *
 * Ni             44      0.43752             -0.07946              0.04178         *
 * Ni             45      0.15439             -0.26375             -0.01480         *
 * Ni             46      0.17597              0.19733             -0.30202         *
 * Ni             47      0.09629              0.01884              0.00451         *
 * Ni             48     -0.07746              0.00143              0.01001         *
 * Ni             49     -0.02382              0.03391             -0.00328         *
 * Ni             50      0.05565             -0.00699              0.00447         *
 * Ni             51      0.00994             -0.01292             -0.00853         *
 * Ni             52      0.09305              0.01332             -0.04187         *
 * Ni             53      0.31241             -0.10193              0.02689         *
 * Ni             54      0.36904              0.00173             -0.02350         *
 * Ni             55      0.25929             -0.04551             -0.08621         *
 * Ni             56      0.04604             -0.03335              0.00006         *
 * Ni             57     -0.10019             -0.00551             -0.00283         *
 * Ni             58     -0.06275             -0.01034              0.00230         *
 * Ni             59      0.03210             -0.01173              0.00549         *
 * Ni             60      0.02721              0.00208             -0.01905         *
 * Ni             61      0.07860             -0.00758              0.00212         *
 * Ni             62      0.31351             -0.02364              0.01507         *
 * Ni             63      0.27200              0.02393              0.05318         *
 * Ni             64      0.12103             -0.04323             -0.00539         *
 * Ni             65      0.08074              0.01053             -0.01389         *
 * Ni             66     -0.08212              0.03053              0.01133         *
 * Ni             67      0.00641             -0.03473              0.00518         *
 * Ni             68      0.01185              0.01032              0.00384         *
 * Ni             69      0.01464              0.01408             -0.01529         *
 * Ni             70      0.09157             -0.00920              0.01098         *
 * Ni             71      0.27406              0.13896              0.19330         *
 * Ni             72      0.28699              0.11531              0.04398         *
 * Ni             73      0.13088             -0.05910             -0.01138         *
 * Ni             74     -0.01016             -0.02643             -0.03712         *
 * Ni             75      0.09838              0.01460              0.01180         *
 * Ni             76      0.02521             -0.00357              0.07263         *
 * Ni             77      0.02079             -0.00695             -0.00574         *
 * Ni             78      0.03339              0.00226              0.01261         *
 * Ni             79      0.11235             -0.05348              0.01622         *
 * Ni             80      0.48327             -0.02625             -0.00507         *
 * Ni             81      0.42828             -0.09905              0.02772         *
 * Ni             82      0.10324              0.08706             -0.10760         *
 * Ni             83      0.00043              0.01050             -0.05503         *
 * Ni             84     -0.00087             -0.02584              0.00314         *
 * Ni             85     -0.02681              0.00816              0.00963         *
 * Ni             86      0.02203             -0.00213             -0.01533         *
 * Ni             87      0.01969             -0.00529              0.01457         *
 * Ni             88      0.09713              0.02754             -0.03477         *
 * Ni             89      0.66245             -0.13033              0.04292         *
 * Ni             90      0.22890             -0.15856             -0.03348         *
 * Ni             91      0.06116              0.06774             -0.15092         *
 * Ni             92     -0.01693              0.00768             -0.01265         *
 * Ni             93     -0.12293             -0.01014             -0.03319         *
 * Ni             94     -0.03794              0.00877             -0.01475         *
 * Ni             95      0.03204             -0.00206              0.00845         *
 * Ni             96      0.03278             -0.00093              0.02220         *
 * Ni             97      0.02902              0.05112             -0.02235         *
 * Ni             98      0.16814              0.07182              0.07791         *
 * Ni             99      0.32655              0.07507              0.06906         *
 * Ni            100      0.10133             -0.10312             -0.10745         *
 * Ni            101     -0.00308              0.00170             -0.00142         *
 * Ni            102     -0.08063              0.01765             -0.02138         *
 * Ni            103     -0.02015             -0.01280             -0.01590         *
 * Ni            104      0.01614              0.01011              0.00710         *
 * Ni            105      0.02724              0.00612              0.01832         *
 * Ni            106      0.06747             -0.04616             -0.02801         *
 * Ni            107      0.33463              0.03864              0.09106         *
 * Ni            108      0.44761              0.07144              0.07459         *
 * Ni            109      0.09953              0.01641              0.04763         *
 * Ni            110      0.01857             -0.00585             -0.00415         *
 * Ni            111      0.02890             -0.01788              0.01242         *
 * Ni            112     -0.00521              0.00747              0.00276         *
 * Ni            113     -0.00010             -0.01560              0.00021         *
 * Ni            114      0.02209             -0.00858             -0.01589         *
 * Ni            115      0.04771             -0.04303              0.05617         *
 * Ni            116      0.46303              0.02395             -0.07185         *
 * Ni            117      0.53794             -0.09891             -0.02735         *
 * Ni            118      0.06818             -0.05145              0.11800         *
 * Ni            119      0.02358              0.01861              0.01253         *
 * Ni            120     -0.01661              0.02164             -0.00879         *
 * Ni            121     -0.02128             -0.00626             -0.01336         *
 * Ni            122      0.00595             -0.00406              0.00806         *
 * Ni            123      0.03345              0.01722             -0.01342         *
 * Ni            124      0.08022             -0.03000              0.03436         *
 * Ni            125      0.39186             -0.14622             -0.02641         *
 * Ni            126      0.58392             -0.08111             -0.03959         *
 * Ni            127      0.08730             -0.01998              0.04991         *
 * Ni            128     -0.01801             -0.00435             -0.00101         *
 * Ni            129     -0.02771              0.00309             -0.01377         *
 * Ni            130     -0.02915              0.00025              0.00281         *
 * Ni            131      0.03539              0.01313             -0.00785         *
 * Ni            132      0.02096             -0.00391              0.00694         *
 * Ni            133      0.05229              0.02541             -0.01720         *
 * Ni            134     -0.00410              0.18788             -0.11345         *
 * Ni            135      0.29509              0.05424             -0.11466         *
 * Ni            136      0.12280              0.06502             -0.00696         *
 * Ni            137     -0.00633             -0.01349              0.01603         *
 * Ni            138     -0.02413             -0.00538             -0.02963         *
 * Ni            139     -0.01972             -0.00126             -0.00202         *
 * Ni            140      0.00728              0.00166              0.00202         *
 * Ni            141      0.02198             -0.00318             -0.00896         *
 * Ni            142      0.08017              0.03281             -0.01894         *
 * Ni            143      0.27697              0.07796             -0.11930         *
 * Ni            144      0.46146              0.03409             -0.06562         *
 * Ni            145      0.44474             -0.04363              0.18356         *
 * Ni            146     -0.21391              0.05996             -0.01670         *
 * Ni            147      0.02461             -0.04361              0.18764         *
 * Ni            148     -0.24339              0.22245              0.13012         *
 * Ni            149      0.07142             -0.11338              0.16006         *
 * Ni            150     -0.14537             -0.15081              0.04094         *
 * Ni            151     -0.06930             -0.05548              0.05671         *
 * Ni            152     -0.30686             -0.12220              0.09459         *
 * Ni            153      0.05750             -0.12889              0.19093         *
 * Ni            154     -0.31153             -0.18027              0.25227         *
 * Ni            155     -0.09692              0.03550              0.17272         *
 * Ni            156      0.10181             -0.16607              0.32875         *
 * Ni            157      0.24749              0.34284              0.07622         *
 * Ni            158     -0.04338              0.07659             -0.27155         *
 * Ni            159     -0.14138             -0.01269              0.21727         *
 * Ni            160     -0.27553             -0.29152              0.08624         *
 * Ni            161     -0.12158             -0.04629             -0.28596         *
 * Ni            162     -0.20472             -0.02835             -0.03465         *
 * Ni            163     -0.02314              0.24096             -0.01591         *
 * Ni            164     -0.13482              0.20055              0.19270         *
 * Ni            165      0.00090              0.23612              0.14083         *
 * Ni            166     -0.12160             -0.07159             -0.13339         *
 * Ni            167     -0.05255             -0.04364             -0.05311         *
 * Ni            168     -0.12854             -0.07280             -0.10415         *
 * Ni            169     -0.07377              0.05910              0.06329         *
 * Ni            170     -0.22260             -0.12940              0.06755         *
 * Ni            171     -0.32924             -0.38375              0.02016         *
 * Ni            172     -0.26602             -0.02908              0.00615         *
 * Ni            173     -0.02485             -0.17676             -0.10845         *
 * Ni            174     -0.30239              0.43193             -0.24479         *
 * Ni            175     -0.05131              0.08189             -0.10457         *
 * Ni            176     -0.16225              0.11897              0.19050         *
 * Ni            177     -0.19455             -0.05622              0.12788         *
 * Ni            178     -0.16489              0.36908              0.07627         *
 * Ni            179     -0.24005             -0.13122             -0.15630         *
 * Ni            180     -0.27955              0.07556              0.18671         *
 * Ni            181     -0.13174              0.09770              0.00581         *
 * Ni            182     -0.31406             -0.04948              0.02151         *
 * Ni            183     -0.15566             -0.06965              0.08421         *
 * Ni            184     -0.22103              0.26907             -0.05184         *
 * Ni            185     -0.16366             -0.07182              0.12737         *
 * Ni            186     -0.43566             -0.05670              0.03463         *
 * Ni            187     -0.10278             -0.02676             -0.15020         *
 * Ni            188     -0.15536             -0.03241              0.00234         *
 * Ni            189     -0.20039             -0.20318             -0.07702         *
 * Ni            190     -0.00736             -0.07411             -0.10736         *
 * Ni            191     -0.10524             -0.04527             -0.19992         *
 * Ni            192     -0.25933              0.17649             -0.05158         *
 * Ni            193     -0.21579              0.01130             -0.15010         *
 * Ni            194     -0.03271              0.04688             -0.07847         *
 * Ni            195     -0.04813              0.05652             -0.21331         *
 *                                                                                  *
 ************************************************************************************
 LBFGS: finished iteration     0 with enthalpy= -2.75181889E+005 eV
  
 +-----------+-----------------+-----------------+------------+-----+ <-- LBFGS
 | Parameter |      value      |    tolerance    |    units   | OK? | <-- LBFGS
 +-----------+-----------------+-----------------+------------+-----+ <-- LBFGS
 |  dE/ion   |   0.000000E+000 |   2.000000E-005 |         eV | No  | <-- LBFGS
 |  |F|max   |   9.935147E-001 |   5.000000E-002 |       eV/A | No  | <-- LBFGS
 |  |dR|max  |   0.000000E+000 |   1.000000E-003 |          A | No  | <-- LBFGS
 +-----------+-----------------+-----------------+------------+-----+ <-- LBFGS
  

================================================================================
 Starting LBFGS iteration          1 ...
================================================================================
  
 +------------+-------------+-------------+-----------------+ <-- min LBFGS
 |    Step    |   lambda    |   F.delta'  |    enthalpy     | <-- min LBFGS
 +------------+-------------+-------------+-----------------+ <-- min LBFGS
 |  previous  |    0.000000 |    2.121012 |  -275181.889393 | <-- min LBFGS
 +------------+-------------+-------------+-----------------+ <-- min LBFGS
  

--------------------------------------------------------------------------------
 LBFGS: starting iteration         1 with trial guess (lambda=  1.000000)
--------------------------------------------------------------------------------
 
                           -------------------------------
                                     Cell Contents
                           -------------------------------
 
            xxxxxxxxxxxxxxxxxxxxxxxxxxxxxxxxxxxxxxxxxxxxxxxxxxxxxxxxxxxxxxxxx
            x  Element         Atom        Fractional coordinates of atoms  x
            x                 Number           u          v          w      x
            x---------------------------------------------------------------x
            x  Al                1         0.318217   0.309363   0.062321   x
            x  Al                2         0.565963   0.310965   0.061021   x
            x  Al                3         0.813992   0.311537   0.061064   x
            x  Al                4         0.317409   0.561340   0.063684   x
            x  Al                5         0.565289   0.560475   0.061499   x
            x  Al                6         0.814362   0.560681   0.061076   x
            x  Al                7         0.322457   0.811635   0.058225   x
            x  Al                8         0.566474   0.810015   0.060608   x
            x  Al                9         0.814618   0.809783   0.060706   x
            x  Al               10         0.319421   0.060275   0.061329   x
            x  Al               11         0.567331   0.060883   0.060240   x
            x  Al               12         0.814221   0.060673   0.060729   x
            x  Al               13         0.317653   0.308491   0.309735   x
            x  Al               14         0.565105   0.310495   0.311466   x
            x  Al               15         0.813581   0.311452   0.311337   x
            x  Al               16         0.321396   0.555849   0.309816   x
            x  Al               17         0.564102   0.560232   0.311482   x
            x  Al               18         0.813804   0.560619   0.311378   x
            x  Al               19         0.324578   0.815852   0.311230   x
            x  Al               20         0.566481   0.810422   0.311330   x
            x  Al               21         0.814025   0.809842   0.311223   x
            x  Al               22         0.321522   0.059531   0.307341   x
            x  Al               23         0.567193   0.060876   0.311162   x
            x  Al               24         0.813784   0.060769   0.311116   x
            x  Al               25         0.319983   0.308270   0.559783   x
            x  Al               26         0.563886   0.311704   0.560908   x
            x  Al               27         0.814060   0.311692   0.561217   x
            x  Al               28         0.317639   0.562517   0.559392   x
            x  Al               29         0.563180   0.560173   0.560738   x
            x  Al               30         0.814401   0.560801   0.561357   x
            x  Al               31         0.321931   0.810799   0.563994   x
            x  Al               32         0.566033   0.809615   0.561702   x
            x  Al               33         0.814590   0.809680   0.561529   x
            x  Al               34         0.324421   0.059969   0.566968   x
            x  Al               35         0.566891   0.060723   0.561810   x
            x  Al               36         0.814299   0.060757   0.561418   x
            x  Al               37         0.319374   0.310656   0.812319   x
            x  Al               38         0.565006   0.311920   0.811311   x
            x  Al               39         0.814596   0.311886   0.810797   x
            x  Al               40         0.316655   0.560972   0.813043   x
            x  Al               41         0.564560   0.560182   0.811178   x
            x  Al               42         0.814658   0.560713   0.810880   x
            x  Al               43         0.317884   0.810300   0.811946   x
            x  Al               44         0.566645   0.809389   0.811370   x
            x  Al               45         0.814890   0.809660   0.811051   x
            x  Al               46         0.319733   0.060114   0.810624   x
            x  Al               47         0.567374   0.060934   0.811765   x
            x  Al               48         0.814833   0.060658   0.810963   x
            x  Al               49         0.075912   0.184229   0.932385   x
            x  Al               50         0.068982   0.937370   0.937151   x
            x  Al               51         0.065902   0.692171   0.942136   x
            x  Al               52         0.073417   0.686091   0.686323   x
            x  Al               53         0.079979   0.430241   0.682065   x
            x  Al               54         0.075480   0.557220   0.818321   x
            x  Al               55         0.065021   0.062946   0.310408   x
            x  Al               56         0.187863   0.059637   0.443067   x
            x  Al               57         0.180912   0.815948   0.437758   x
            x  Al               58         0.179843   0.678432   0.308654   x
            x  Al               59         0.076555   0.432667   0.433376   x
            x  Al               60         0.181748   0.818465   0.183765   x
            x  Ni                1         0.315813   0.433622   0.185311   x
            x  Ni                2         0.442063   0.309589   0.185782   x
            x  Ni                3         0.441371   0.435502   0.061847   x
            x  Ni                4         0.564848   0.435624   0.186863   x
            x  Ni                5         0.689665   0.311246   0.186299   x
            x  Ni                6         0.689633   0.436072   0.061257   x
            x  Ni                7         0.813665   0.436179   0.186376   x
            x  Ni                8         0.937613   0.311228   0.186224   x
            x  Ni                9         0.938230   0.436093   0.061322   x
            x  Ni               10         0.311918   0.689461   0.189619   x
            x  Ni               11         0.440802   0.561141   0.185949   x
            x  Ni               12         0.440932   0.685377   0.062235   x
            x  Ni               13         0.566070   0.685317   0.186270   x
            x  Ni               14         0.689362   0.560425   0.186484   x
            x  Ni               15         0.690079   0.684991   0.061017   x
            x  Ni               16         0.814069   0.685063   0.186010   x
            x  Ni               17         0.938442   0.560577   0.186175   x
            x  Ni               18         0.939298   0.685298   0.060827   x
            x  Ni               19         0.316398   0.934507   0.184207   x
            x  Ni               20         0.443006   0.810973   0.185318   x
            x  Ni               21         0.443569   0.936147   0.060018   x
            x  Ni               22         0.567431   0.935556   0.185454   x
            x  Ni               23         0.690211   0.810028   0.185970   x
            x  Ni               24         0.690769   0.935133   0.060556   x
            x  Ni               25         0.813922   0.935084   0.185724   x
            x  Ni               26         0.938171   0.810041   0.185731   x
            x  Ni               27         0.938285   0.935275   0.060893   x
            x  Ni               28         0.316402   0.184618   0.185473   x
            x  Ni               29         0.443450   0.060173   0.184746   x
            x  Ni               30         0.442267   0.185262   0.060695   x
            x  Ni               31         0.566704   0.185659   0.185736   x
            x  Ni               32         0.690645   0.060723   0.185814   x
            x  Ni               33         0.690570   0.186304   0.060787   x
            x  Ni               34         0.813682   0.186289   0.186060   x
            x  Ni               35         0.937204   0.060847   0.185624   x
            x  Ni               36         0.937701   0.186121   0.061092   x
            x  Ni               37         0.201147   0.434532   0.555103   x
            x  Ni               38         0.437888   0.310512   0.435236   x
            x  Ni               39         0.439134   0.433755   0.312328   x
            x  Ni               40         0.563677   0.435597   0.436292   x
            x  Ni               41         0.689256   0.311371   0.436529   x
            x  Ni               42         0.688925   0.435939   0.311579   x
            x  Ni               43         0.813624   0.436297   0.436343   x
            x  Ni               44         0.937856   0.311499   0.435820   x
            x  Ni               45         0.938024   0.436180   0.311234   x
            x  Ni               46         0.311334   0.689373   0.431522   x
            x  Ni               47         0.437479   0.560125   0.435491   x
            x  Ni               48         0.441216   0.686040   0.310849   x
            x  Ni               49         0.564847   0.684799   0.436216   x
            x  Ni               50         0.688884   0.560387   0.436393   x
            x  Ni               51         0.689582   0.685051   0.311460   x
            x  Ni               52         0.814062   0.685019   0.436616   x
            x  Ni               53         0.938597   0.560734   0.436205   x
            x  Ni               54         0.938127   0.685055   0.311128   x
            x  Ni               55         0.315353   0.936889   0.438285   x
            x  Ni               56         0.442059   0.811327   0.436838   x
            x  Ni               57         0.444443   0.936863   0.311012   x
            x  Ni               58         0.567231   0.935508   0.436761   x
            x  Ni               59         0.689939   0.809828   0.436583   x
            x  Ni               60         0.690367   0.935293   0.311252   x
            x  Ni               61         0.814008   0.935059   0.436452   x
            x  Ni               62         0.938344   0.809821   0.436215   x
            x  Ni               63         0.937036   0.935240   0.310587   x
            x  Ni               64         0.316248   0.181009   0.436027   x
            x  Ni               65         0.442445   0.059784   0.436644   x
            x  Ni               66         0.442449   0.184585   0.310660   x
            x  Ni               67         0.565643   0.186213   0.436230   x
            x  Ni               68         0.690441   0.060897   0.436650   x
            x  Ni               69         0.690010   0.186139   0.311337   x
            x  Ni               70         0.813584   0.186440   0.436390   x
            x  Ni               71         0.937256   0.061077   0.435728   x
            x  Ni               72         0.937371   0.186357   0.310971   x
            x  Ni               73         0.315588   0.436004   0.685574   x
            x  Ni               74         0.440904   0.311334   0.686546   x
            x  Ni               75         0.436414   0.435796   0.558596   x
            x  Ni               76         0.563624   0.436320   0.685316   x
            x  Ni               77         0.689439   0.311901   0.685964   x
            x  Ni               78         0.688984   0.436195   0.561126   x
            x  Ni               79         0.814409   0.436599   0.686010   x
            x  Ni               80         0.938501   0.311597   0.685848   x
            x  Ni               81         0.938679   0.436665   0.560874   x
            x  Ni               82         0.314664   0.685594   0.687187   x
            x  Ni               83         0.439224   0.560757   0.686265   x
            x  Ni               84         0.440153   0.685579   0.560449   x
            x  Ni               85         0.565126   0.684457   0.686157   x
            x  Ni               86         0.689207   0.560350   0.685854   x
            x  Ni               87         0.689398   0.684704   0.561284   x
            x  Ni               88         0.814645   0.684944   0.686187   x
            x  Ni               89         0.940181   0.561228   0.686342   x
            x  Ni               90         0.939774   0.685300   0.561583   x
            x  Ni               91         0.317713   0.934740   0.688167   x
            x  Ni               92         0.442469   0.809632   0.687769   x
            x  Ni               93         0.444043   0.935138   0.562527   x
            x  Ni               94         0.567324   0.934823   0.687094   x
            x  Ni               95         0.690319   0.809505   0.686291   x
            x  Ni               96         0.690471   0.935107   0.561711   x
            x  Ni               97         0.814765   0.934868   0.686362   x
            x  Ni               98         0.939760   0.809733   0.686517   x
[...]
            Ni 15  -- Ni 124                 0.03        2.57126
            Ni 170 -- Ni 171                 0.08        2.57129
            Ni 65  -- Ni 93                  0.04        2.57130
            Ni 40  -- Ni 42                  0.04        2.57133
            Ni 37  -- Ni 160                 0.11        2.57135
            Ni 2   -- Ni 4                   0.04        2.57136
             Al 43 -- Ni 191                 0.19        2.57137
            Ni 136 -- Ni 138                 0.04        2.57149
            Ni 94  -- Ni 95                  0.04        2.57150
            Ni 143 -- Ni 144                 0.02        2.57160
            Ni 85  -- Ni 87                  0.04        2.57163
            Ni 43  -- Ni 78                  0.04        2.57165
            Ni 143 -- Ni 193                 0.06        2.57166
            Ni 59  -- Ni 60                  0.04        2.57170
             Al 45 -- Ni 97                  0.21        2.57177
            Ni 79  -- Ni 114                 0.03        2.57180
            Ni 21  -- Ni 22                  0.04        2.57181
            Ni 39  -- Ni 47                  0.13        2.57184
             Al 20 -- Ni 49                  0.21        2.57196
            Ni 124 -- Ni 131                 0.04        2.57201
             Al 34 -- Ni 65                  0.21        2.57202
            Ni 17  -- Ni 54                  0.06        2.57204
            Ni 161 -- Ni 164                 0.13        2.57207
            Ni 111 -- Ni 112                 0.04        2.57213
             Al 7  -- Ni 20                  0.21        2.57215
             Al 49 -- Ni 156                 0.19        2.57238
             Al 8  -- Ni 128                 0.21        2.57249
            Ni 159 -- Ni 184                 0.03        2.57259
             Al 14 -- Ni 38                  0.19        2.57266
             Al 40 -- Ni 120                 0.21        2.57269
            Ni 130 -- Ni 140                 0.04        2.57275
            Ni 118 -- Ni 120                 0.04        2.57282
            Ni 156 -- Ni 194                 0.06        2.57295
            Ni 89  -- Ni 117                -0.00        2.57299
             Al 29 -- Ni 86                  0.20        2.57300
             Al 23 -- Ni 22                  0.21        2.57308
            Ni 86  -- Ni 88                  0.04        2.57312
            Ni 93  -- Ni 101                 0.03        2.57317
            Ni 62  -- Ni 99                  0.06        2.57321
            Ni 87  -- Ni 88                  0.04        2.57331
             Al 38 -- Ni 74                  0.20        2.57336
            Ni 92  -- Ni 93                  0.03        2.57346
             Al 14 -- Ni 2                   0.20        2.57349
             Al 47 -- Ni 129                 0.20        2.57351
            Ni 85  -- Ni 120                 0.04        2.57353
             Al 41 -- Ni 123                 0.21        2.57359
            Ni 136 -- Ni 137                 0.04        2.57361
            Ni 10  -- Ni 20                  0.05        2.57366
             Al 59 -- Ni 171                 0.18        2.57369
            Ni 28  -- Ni 30                  0.04        2.57372
            Ni 91  -- Ni 92                  0.04        2.57377
            Ni 1   -- Ni 11                  0.03        2.57379
            Ni 21  -- Ni 127                 0.04        2.57381
             Al 29 -- Ni 83                  0.20        2.57396
            Ni 85  -- Ni 123                 0.04        2.57397
             Al 11 -- Ni 30                  0.20        2.57400
             Al 40 -- Ni 83                  0.21        2.57400
            Ni 91  -- Ni 180                 0.04        2.57411
             Al 30 -- Ni 52                  0.21        2.57413
             Al 22 -- Ni 167                 0.18        2.57419
             Al 26 -- Ni 75                  0.19        2.57424
             Al 9  -- Ni 133                 0.20        2.57425
            Ni 83  -- Ni 85                  0.04        2.57426
             Al 32 -- Ni 92                  0.20        2.57437
            Ni 170 -- Ni 185                 0.02        2.57453
            Ni 28  -- Ni 158                 0.04        2.57457
             Al 42 -- Ni 123                 0.21        2.57460
            Ni 130 -- Ni 137                 0.04        2.57463
            Ni 136 -- Ni 159                 0.05        2.57466
            Ni 21  -- Ni 128                 0.03        2.57470
             Al 4  -- Ni 109                 0.20        2.57472
            Ni 47  -- Ni 49                  0.02        2.57477
             Al 4  -- Ni 187                 0.19        2.57482
             Al 20 -- Ni 22                  0.21        2.57485
             Al 47 -- Ni 138                 0.20        2.57492
             Al 10 -- Ni 194                 0.19        2.57510
             Al 50 -- Ni 193                 0.19        2.57514
            Ni 3   -- Ni 112                 0.04        2.57517
            Ni 120 -- Ni 121                 0.04        2.57519
            Ni 130 -- Ni 131                 0.04        2.57520
             Al 5  -- Ni 122                 0.20        2.57522
             Al 37 -- Ni 73                  0.20        2.57522
            Ni 80  -- Ni 81                  0.01        2.57531
            Ni 112 -- Ni 114                 0.04        2.57535
             Al 55 -- Ni 166                 0.18        2.57538
             Al 17 -- Ni 47                  0.19        2.57547
             Al 32 -- Ni 58                  0.21        2.57557
             Al 13 -- Ni 64                  0.25        2.57572
             Al 8  -- Ni 21                  0.20        2.57581
            Ni 29  -- Ni 66                  0.03        2.57588
             Al 28 -- Ni 83                  0.19        2.57599
            Ni 1   -- Ni 39                  0.06        2.57599
            Ni 121 -- Ni 131                 0.04        2.57604
            Ni 184 -- Ni 195                 0.02        2.57626
            Ni 188 -- Ni 190                 0.01        2.57628
            Ni 91  -- Ni 101                 0.03        2.57631
            Ni 166 -- Ni 178                 0.10        2.57654
             Al 41 -- Ni 119                 0.20        2.57666
            Ni 76  -- Ni 78                  0.03        2.57679
            Ni 153 -- Ni 154                 0.06        2.57687
             Al 41 -- Ni 86                  0.20        2.57694
            Ni 4   -- Ni 11                  0.04        2.57695
            Ni 78  -- Ni 79                  0.03        2.57708
            Ni 109 -- Ni 185                 0.07        2.57709
            Ni 88  -- Ni 95                  0.03        2.57712
            Ni 172 -- Ni 188                -0.01        2.57723
             Al 13 -- Ni 66                  0.19        2.57733
             Al 42 -- Ni 86                  0.21        2.57745
             Al 42 -- Ni 114                 0.21        2.57761
             Al 59 -- Ni 164                 0.20        2.57765
             Al 9  -- Ni 124                 0.20        2.57782
            Ni 121 -- Ni 123                 0.04        2.57785
            Ni 100 -- Ni 101                 0.03        2.57786
            Ni 176 -- Ni 178                 0.09        2.57787
            Ni 85  -- Ni 95                  0.04        2.57788
             Al 29 -- Ni 75                  0.19        2.57790
            Ni 82  -- Ni 120                 0.04        2.57797
             Al 40 -- Ni 189                 0.18        2.57806
            Ni 48  -- Ni 56                  0.03        2.57807
             Al 51 -- Ni 147                 0.19        2.57812
            Ni 89  -- Ni 90                  0.02        2.57820
             Al 58 -- Ni 46                  0.19        2.57840
            Ni 40  -- Ni 78                  0.04        2.57849
             Al 56 -- Ni 64                  0.18        2.57861
             Al 44 -- Ni 129                 0.20        2.57866
             Al 55 -- Ni 168                 0.17        2.57897
             Al 25 -- Ni 181                 0.16        2.57923
             Al 4  -- Ni 119                 0.20        2.57926
             Al 23 -- Ni 29                  0.20        2.57930
             Al 22 -- Ni 158                 0.19        2.57933
            Ni 117 -- Ni 125                 0.02        2.57948
             Al 56 -- Ni 167                 0.19        2.57987
             Al 34 -- Ni 180                 0.18        2.57994
            Ni 27  -- Ni 134                 0.00        2.58004
            Ni 152 -- Ni 155                 0.04        2.58005
            Ni 71  -- Ni 72                  0.03        2.58029
            Ni 18  -- Ni 147                 0.08        2.58035
             Al 23 -- Ni 58                  0.20        2.58042
             Al 60 -- Ni 19                  0.19        2.58060
            Ni 35  -- Ni 72                  0.02        2.58090
            Ni 82  -- Ni 172                 0.11        2.58091
            Ni 149 -- Ni 150                 0.05        2.58092
            Ni 82  -- Ni 84                  0.05        2.58111
            Ni 115 -- Ni 117                 0.07        2.58113
            Ni 46  -- Ni 56                  0.05        2.58116
             Al 10 -- Ni 19                  0.21        2.58121
            Ni 84  -- Ni 85                  0.04        2.58123
             Al 7  -- Ni 151                 0.18        2.58135
            Ni 168 -- Ni 181                 0.06        2.58151
             Al 12 -- Ni 25                  0.20        2.58174
            Ni 116 -- Ni 144                 0.02        2.58176
             Al 5  -- Ni 11                  0.20        2.58180
             Al 13 -- Ni 146                 0.18        2.58183
             Al 49 -- Ni 193                 0.19        2.58200
             Al 22 -- Ni 169                 0.19        2.58209
            Ni 12  -- Ni 118                 0.03        2.58258
            Ni 20  -- Ni 48                  0.04        2.58261
            Ni 37  -- Ni 171                 0.04        2.58266
            Ni 98  -- Ni 126                 0.02        2.58267
            Ni 19  -- Ni 167                -0.00        2.58276
             Al 43 -- Ni 129                 0.20        2.58306
            Ni 153 -- Ni 155                 0.05        2.58363
             Al 42 -- Ni 126                 0.18        2.58375
            Ni 190 -- Ni 191                 0.00        2.58377
             Al 59 -- Ni 53                  0.18        2.58384
            Ni 149 -- Ni 154                 0.00        2.58402
             Al 25 -- Ni 74                  0.19        2.58407
             Al 55 -- Ni 158                 0.20        2.58409
            Ni 84  -- Ni 92                  0.03        2.58438
            Ni 73  -- Ni 172                 0.07        2.58441
             Al 41 -- Ni 83                  0.20        2.58443
            Ni 12  -- Ni 128                 0.03        2.58444
             Al 22 -- Ni 64                  0.20        2.58452
            Ni 12  -- Ni 121                 0.04        2.58462
            Ni 11  -- Ni 39                  0.03        2.58488
            Ni 37  -- Ni 170                 0.01        2.58507
             Al 13 -- Ni 28                  0.19        2.58513
            Ni 125 -- Ni 126                -0.01        2.58566
            Ni 28  -- Ni 29                  0.04        2.58573
             Al 8  -- Ni 12                  0.20        2.58631
             Al 52 -- Ni 174                 0.19        2.58641
             Al 31 -- Ni 173                 0.18        2.58646
            Ni 154 -- Ni 167                 0.06        2.58660
             Al 34 -- Ni 64                  0.20        2.58684
            Ni 73  -- Ni 111                 0.04        2.58697
            Ni 55  -- Ni 56                  0.07        2.58715
             Al 28 -- Ni 82                  0.20        2.58783
            Ni 188 -- Ni 189                -0.01        2.58807
            Ni 166 -- Ni 167                 0.01        2.58818
             Al 40 -- Ni 188                 0.18        2.58825
             Al 42 -- Ni 122                 0.20        2.58852
             Al 52 -- Ni 192                 0.18        2.58863
            Ni 81  -- Ni 171                 0.04        2.58865
            Ni 101 -- Ni 102                 0.03        2.58867
            Ni 172 -- Ni 185                -0.01        2.58877
            Ni 147 -- Ni 151                 0.08        2.58891
             Al 40 -- Ni 119                 0.20        2.58893
            Ni 88  -- Ni 126                 0.08        2.58902
            Ni 19  -- Ni 158                 0.05        2.58929
            Ni 151 -- Ni 190                 0.03        2.58951
            Ni 20  -- Ni 57                  0.02        2.58969
            Ni 55  -- Ni 177                -0.02        2.58977
             Al 34 -- Ni 55                  0.20        2.58984
             Al 13 -- Ni 2                   0.18        2.59002
            Ni 79  -- Ni 89                  0.08        2.59007
            Ni 37  -- Ni 174                 0.05        2.59036
             Al 40 -- Ni 172                 0.18        2.59052
            Ni 163 -- Ni 178                 0.05        2.59063
            Ni 37  -- Ni 172                 0.01        2.59064
            Ni 185 -- Ni 189                 0.02        2.59076
            Ni 55  -- Ni 167                -0.01        2.59100
            Ni 45  -- Ni 53                  0.02        2.59125
            Ni 149 -- Ni 165                 0.08        2.59207
             Al 44 -- Ni 120                 0.20        2.59221
             Al 32 -- Ni 84                  0.19        2.59237
            Ni 176 -- Ni 188                 0.02        2.59242
            Ni 63  -- Ni 71                  0.03        2.59251
            Ni 118 -- Ni 188                 0.08        2.59291
            Ni 146 -- Ni 169                 0.08        2.59305
             Al 42 -- Ni 89                  0.18        2.59311
            Ni 127 -- Ni 128                 0.03        2.59347
            Ni 88  -- Ni 89                  0.08        2.59351
            Ni 82  -- Ni 188                 0.08        2.59355
             Al 25 -- Ni 100                 0.18        2.59391
            Ni 152 -- Ni 190                 0.05        2.59441
             Al 22 -- Ni 65                  0.20        2.59454
            Ni 153 -- Ni 167                 0.03        2.59458
            Ni 160 -- Ni 161                 0.11        2.59492
            Ni 124 -- Ni 126                 0.08        2.59505
            Ni 154 -- Ni 166                 0.06        2.59553
             Al 56 -- Ni 55                  0.18        2.59554
            Ni 82  -- Ni 92                  0.03        2.59599
             Al 51 -- Ni 125                 0.17        2.59655
             Al 31 -- Ni 55                  0.20        2.59728
            Ni 118 -- Ni 128                 0.03        2.59801
            Ni 75  -- Ni 76                  0.01        2.59818
             Al 22 -- Ni 55                  0.19        2.59839
            Ni 56  -- Ni 57                  0.03        2.59844
             Al 30 -- Ni 89                  0.19        2.59887
            Ni 173 -- Ni 176                 0.03        2.59895
             Al 51 -- Ni 189                 0.17        2.59933
            Ni 151 -- Ni 189                 0.06        2.59945
            Ni 38  -- Ni 64                  0.08        2.59950
            Ni 35  -- Ni 63                  0.02        2.59987
            Ni 90  -- Ni 98                  0.02        2.60093
            Ni 18  -- Ni 134                 0.01        2.60263
             Al 53 -- Ni 185                 0.17        2.60297
             Al 16 -- Ni 46                  0.23        2.60406
            Ni 164 -- Ni 165                 0.01        2.60481
             Al 43 -- Ni 188                 0.19        2.60491
            Ni 55  -- Ni 57                  0.01        2.60677
            Ni 19  -- Ni 57                  0.02        2.60685
            Ni 10  -- Ni 150                 0.04        2.60837
            Ni 19  -- Ni 29                  0.06        2.60931
            Ni 172 -- Ni 173                 0.04        2.61113
             Al 34 -- Ni 181                 0.16        2.61128
             Al 45 -- Ni 126                 0.18        2.61192
             Al 28 -- Ni 172                 0.17        2.61330
             Al 55 -- Ni 167                 0.18        2.61656
             Al 53 -- Ni 117                 0.17        2.61767
             Al 57 -- Ni 55                  0.17        2.61844
             Al 13 -- Ni 169                 0.16        2.61884
             Al 53 -- Ni 174                 0.17        2.61960
            Ni 163 -- Ni 165                 0.06        2.62031
             Al 34 -- Ni 177                 0.15        2.62279
             Al 31 -- Ni 177                 0.16        2.62428
            Ni 173 -- Ni 178                 0.03        2.62428
             Al 7  -- Ni 155                 0.16        2.62447
            Ni 166 -- Ni 177                 0.02        2.62760
             Al 16 -- Ni 48                  0.16        2.62834
            Ni 151 -- Ni 152                 0.02        2.62966
             Al 16 -- Ni 150                 0.14        2.63158
             Al 51 -- Ni 192                 0.15        2.63691
            Ni 10  -- Ni 11                  0.08        2.63851
             Al 31 -- Ni 46                  0.19        2.64060
            Ni 46  -- Ni 47                  0.07        2.64269
             Al 19 -- Ni 167                 0.17        2.64348
             Al 7  -- Ni 10                  0.18        2.64410
             Al 60 -- Ni 10                  0.16        2.64441
            Ni 46  -- Ni 84                  0.04        2.65095
             Al 4  -- Ni 10                  0.17        2.66008
             Al 28 -- Ni 46                  0.20        2.66046
            Ni 10  -- Ni 12                  0.07        2.66398
             Al 57 -- Ni 46                  0.16        2.66880
             Al 16 -- Ni 10                  0.14        2.67125
             Al 34 -- Al 56                  0.23        2.69064
             Al 51 -- Al 54                  0.23        2.69906
             Al 53 -- Al 54                  0.22        2.70224
             Al 55 -- Al 56                  0.22        2.70455
             Al 7  -- Al 60                  0.20        2.72695
             Al 58 -- Al 60                  0.21        2.72699
             Al 31 -- Al 57                  0.21        2.73235
             Al 16 -- Al 58                  0.17        2.73536
             Al 57 -- Al 58                  0.19        2.75876
             Al 22 -- Al 56                  0.20        2.75991
             Al 52 -- Al 54                  0.18        2.78524
             Al 19 -- Al 57                  0.18        2.81946
             Al 19 -- Al 60                  0.16        2.83405
             Al 19 -- Al 58                  0.09        2.94661
======================================================================
 

Writing analysis data to castep.castep_bin

Writing model to castep.check
 
 A BibTeX formatted list of references used in this run has been written to 
 castep.bib
 
Initialisation time =     26.57 s
Calculation time    =  11446.33 s
Finalisation time   =     20.55 s
Total time          =  11493.45 s
Peak Memory Use     = 3945556 kB
 
Overall parallel efficiency rating: Satisfactory (65%)
 
Data was distributed by:-
G-vector (128-way); efficiency rating: Satisfactory (67%)
