 +-------------------------------------------------+
 |                                                 |
 |      CCC   AA    SSS  TTTTT  EEEEE  PPPP        |
 |     C     A  A  S       T    E      P   P       |
 |     C     AAAA   SS     T    EEE    PPPP        |
 |     C     A  A     S    T    E      P           |
 |      CCC  A  A  SSS     T    EEEEE  P           |
 |                                                 |
 +-------------------------------------------------+
 |                                                 |
 | Welcome to Academic Release CASTEP version 20.11|          
 | Ab Initio Total Energy Program                  |
 |                                                 |
 | Authors:                                        |
 | M. Segall, M. Probert, C. Pickard, P. Hasnip,   |
 | S. Clark, K. Refson, J. R. Yates, M. Payne      |
 |                                                 |
 | Contributors:                                   |
 | P. Lindan, P. Haynes, J. White, V. Milman,      |
 | N. Govind, M. Gibson, P. Tulip, V. Cocula,      |
 | B. Montanari, D. Quigley, M. Glover,            |
 | L. Bernasconi, A. Perlov, M. Plummer,           |
 | E. McNellis, J. Meyer, J. Gale, D. Jochym       |
 | J. Aarons, B. Walker, R. Gillen, D. Jones       |
 | T. Green, I. J. Bush, C. J. Armstrong,          |
 | E. J. Higgins, E. L. Brown, M. S. McFly,        |
 | J. Wilkins, B-C. Shih, P. J. P. Byrne,          |
 | R. J. Maurer, J. C. Womack, J. Dziedzic,        |
 | J. R. Kermode, A. Bartok-Partay                 |
 |                                                 |
 | Copyright (c) 2000 - 2020                       |
 |                                                 |
 |     Distributed under license from Cambridge    |
 |     Enterprise for academic use only.           |
 |                                                 |
 | Please cite                                     |
 |                                                 |
 |     "First principles methods using CASTEP"     |
 |                                                 |
 |         Zeitschrift fuer Kristallographie       |
 |           220(5-6) pp. 567-570 (2005)           |
 |                                                 |
 | S. J. Clark, M. D. Segall, C. J. Pickard,       |
 | P. J. Hasnip, M. J. Probert, K. Refson,         |
 | M. C. Payne                                     |
 |                                                 |
 |       in all publications arising from          |
 |              your use of CASTEP                 |
 |                                                 |
 +-------------------------------------------------+
 |                                                 |
 |              http://www.castep.org              |
 |                                                 |
 +-------------------------------------------------+
 
 
 
 Compiled for linux_x86_64_ifort on Wed, 22 Sep 2021 16:00:02 +0100
 from code version e772bf432+  HEAD  Sat Apr 3 17:41:32 2021 +0100
 Compiler: Intel Fortran 19.1.3.304; Optimisation: fast
 MATHLIBS: Intel MKL(2020.0.4) (LAPACK version 3.8.0)
 FFT Lib : mkl
 Fundamental constants values: CODATA 2014
 
 Run started: Mon, 10 Oct 2022 15:01:24 +0100
 
 Atomic calculation performed for Al: 1s2 2s2 2p6 3s2 3p1
 
 Converged in 52 iterations to an ae energy of -6606.982 eV
 
   ============================================================                
   | Pseudopotential Report - Date of generation 10-10-2022   |                
   ------------------------------------------------------------                
   | Element: Al Ionic charge:  3.00 Level of theory: RPBE    |                
   | Atomic Solver: Koelling-Harmon                           |                
   |                                                          |                
   |               Reference Electronic Structure             |                
   |         Orbital         Occupation         Energy        |                
   |            3s              2.000           -0.284        |                
   |            3p              1.000           -0.100        |                
   |                                                          |                
   |                 Pseudopotential Definition               |                
   |        Beta     l      e      Rc     scheme   norm       |                
   |          1      0   -0.284   2.192     qc      0         |                
   |          2      0    0.250   2.192     qc      0         |                
   |          3      1   -0.100   2.192     qc      0         |                
   |          4      1    0.250   2.192     qc      0         |                
   |          5      2    0.000   2.000     qc      0         |                
   |          6      2    0.250   2.000     qc      0         |                
   |         loc     3    0.000   2.192     pn      0         |                
   |                                                          |                
   | Augmentation charge Rinner = 1.398                       |                
   | Partial core correction Rc = 1.398                       |                
   ------------------------------------------------------------                
   | "3|2.2|2.2|1.4|4|5|5|30:31:32U2U2"                       |                
   ------------------------------------------------------------                
   |      Author: Chris J. Pickard, Cambridge University      |                
   ============================================================                
 
 Atomic calculation performed for Ni: 1s2 2s2 2p6 3s2 3p6 3d8 4s2
 
 Converged in 109 iterations to an ae energy of -41381.414 eV
 
   ============================================================                
   | Pseudopotential Report - Date of generation 10-10-2022   |                
   ------------------------------------------------------------                
   | Element: Ni Ionic charge: 10.00 Level of theory: RPBE    |                
   | Atomic Solver: Koelling-Harmon                           |                
   |                                                          |                
   |               Reference Electronic Structure             |                
   |         Orbital         Occupation         Energy        |                
   |            3d              8.000           -0.324        |                
   |            4s              2.000           -0.204        |                
   |                                                          |                
   |                 Pseudopotential Definition               |                
   |        Beta     l      e      Rc     scheme   norm       |                
   |          1      0   -0.204   2.401     qc      0         |                
   |          2      0    0.250   2.401     qc      0         |                
   |          3      1    0.000   2.401     qc      0         |                
   |          4      1    0.250   2.401     qc      0         |                
   |          5      2   -0.324   1.999     qc      0         |                
   |          6      2    0.250   1.999     qc      0         |                
   |         loc     3    0.000   2.401     pn      0         |                
   |                                                          |                
   | Augmentation charge Rinner = 1.001                       |                
   | Partial core correction Rc = 1.001                       |                
   ------------------------------------------------------------                
   | "3|2.4|2.4|1.0|8|9|10|40:41:32U2U2(qc=5.5)"              |                
   ------------------------------------------------------------                
   |      Author: Chris J. Pickard, Cambridge University      |                
   ============================================================                
 
 Pseudo atomic calculation performed for Al 3s2 3p1
 
 Converged in 13 iterations to a total energy of -107.6592 eV
 
 Pseudo atomic calculation performed for Ni 3d8 4s2
 
 Converged in 41 iterations to a total energy of -1369.7890 eV
 Calculation parallelised over 48 processes.
 Data is distributed by G-vector(48-way)

 ************************************ Title ************************************
 

 ***************************** General Parameters ******************************
  
 output verbosity                               : normal  (1)
 write checkpoint data to                       : castep.check
 type of calculation                            : geometry optimization
 stress calculation                             : off
 density difference calculation                 : off
 electron localisation func (ELF) calculation   : off
 Hirshfeld analysis                             : off
 molecular orbital projected DOS                : off
 deltaSCF calculation                           : off
 unlimited duration calculation
 timing information                             : on
 memory usage estimate                          : on
 write extra output files                       : on
 write final potential to formatted file        : off
 write final density to formatted file          : off
 write BibTeX reference list                    : on
 write OTFG pseudopotential files               : on
 write electrostatic potential file             : on
 write bands file                               : on
 checkpoint writing                             : both castep_bin and check files
  
 output         length unit                     : A
 output           mass unit                     : amu
 output           time unit                     : ps
 output         charge unit                     : e
 output           spin unit                     : hbar/2
 output         energy unit                     : eV
 output          force unit                     : eV/A
 output       velocity unit                     : A/ps
 output       pressure unit                     : GPa
 output     inv_length unit                     : 1/A
 output      frequency unit                     : cm-1
 output force constant unit                     : eV/A**2
 output         volume unit                     : A**3
 output   IR intensity unit                     : (D/A)**2/amu
 output         dipole unit                     : D
 output         efield unit                     : eV/A/e
 output        entropy unit                     : J/mol/K
 output    efield chi2 unit                     : pm/V
  
 wavefunctions paging                           : none
 random number generator seed                   : randomised (150124544)
 data distribution                              : optimal for this architecture
 optimization strategy                          : maximize speed(+++)

 *********************** Exchange-Correlation Parameters ***********************
  
 using functional                               : revised Perdew Burke Ernzerhof
 relativistic treatment                         : Koelling-Harmon
 DFT+D: Semi-empirical dispersion correction    : off

 ************************* Pseudopotential Parameters **************************
  
 pseudopotential representation                 : reciprocal space
 <beta|phi> representation                      : reciprocal space
 spin-orbit coupling                            : off

 **************************** Basis Set Parameters *****************************
  
 plane wave basis set cut-off                   :   900.0000   eV
 size of standard grid                          :     1.7500
 size of   fine   gmax                          :    26.8966   1/A
 finite basis set correction                    : automatic
 number of sample energies                      :          3
           sample  spacing                      :     5.0000   eV

 **************************** Electronic Parameters ****************************
  
 number of  electrons                           :  2112.    
 net charge of system                           :  0.000    
 treating system as non-spin-polarized
 number of bands                                :       1168

 ********************* Electronic Minimization Parameters **********************
  
 Method: Treating system as metallic with density mixing treatment of electrons,
         and number of  SD  steps               :          1
         and number of  CG  steps               :          4
  
 total energy / atom convergence tol.           : 0.1000E-05   eV
 eigen-energy convergence tolerance             : 0.2192E-06   eV
 max force / atom convergence tol.              : ignored
 convergence tolerance window                   :          3   cycles
 max. number of SCF cycles                      :        360
 number of fixed-spin iterations                :         10
 smearing scheme                                : Gaussian
 smearing width                                 : 0.2000       eV
 Fermi energy convergence tolerance             : 0.2721E-13   eV
 periodic dipole correction                     : NONE

 ************************** Density Mixing Parameters **************************
  
 density-mixing scheme                          : Pulay
 max. length of mixing history                  :         20
 charge density mixing amplitude                : 0.8000    
 cut-off energy for mixing                      :  900.0       eV

 *********************** Population Analysis Parameters ************************
  
 Population analysis with cutoff                :  3.000       A
 Population analysis output                     : summary and pdos components

 ********************** Geometry Optimization Parameters ***********************
  
 optimization method                            : LBFGS
 max. no. of LBFGS updates                      : unbounded
 preconditioned LBFGS is activated
 preconditioner type                            : EXP
     stabilization constant                     :     0.1000
     parameter A                                :     3.0000
     nearest neighbor distance                  : automatic
     cut-off distance                           : automatic
     parameter mu                               : automatic
 variable cell method                           : fixed basis quality
 max. number of steps                           :         30
 estimated bulk modulus                         :  500.0       GPa
 estimated <frequency>                          :  1668.       cm-1
 geom line minimiser                            : on
 with line minimiser tolerance                  :     0.4000
 total energy convergence tolerance             : 0.2000E-04   eV/atom
        max ionic |force| tolerance             : 0.5000E-01   eV/A
 max ionic |displacement| tolerance             : 0.1000E-02   A
   max |stress component| tolerance             : 0.1000       GPa
 convergence tolerance window                   :          2   steps
 backup results every                           :          5   steps
 write geom trajectory file                     : on

 *******************************************************************************
  
 
                           -------------------------------
                                      Unit Cell
                           -------------------------------
        Real Lattice(A)                      Reciprocal Lattice(1/A)
    14.4528000     0.0000000     0.0000000        0.434738273   0.000000000   0.000000000
     0.0000000    14.4528000     0.0000000        0.000000000   0.434738273   0.000000000
     0.0000000     0.0000000    14.4528000        0.000000000   0.000000000   0.434738273
 
                       Lattice parameters(A)       Cell Angles
                    a =     14.452800          alpha =   90.000000
                    b =     14.452800          beta  =   90.000000
                    c =     14.452800          gamma =   90.000000
 
                       Current cell volume =          3018.950406       A**3
                                   density =             4.304791   AMU/A**3
                                           =             7.148274     g/cm^3
 
                           -------------------------------
                                     Cell Contents
                           -------------------------------
                         Total number of ions in cell =  256
                      Total number of species in cell =    2
                        Max number of any one species =  192
 
            xxxxxxxxxxxxxxxxxxxxxxxxxxxxxxxxxxxxxxxxxxxxxxxxxxxxxxxxxxxx
            x  Element    Atom        Fractional coordinates of atoms  x
            x            Number           u          v          w      x
            x----------------------------------------------------------x
            x  Al           1         0.937500   0.937500   0.812500   x 
            x  Al           2         0.687500   0.937500   0.812500   x 
            x  Al           3         0.687500   0.812500   0.937500   x 
            x  Al           4         0.562500   0.937500   0.937500   x 
            x  Al           5         0.437500   0.937500   0.812500   x 
            x  Al           6         0.187500   0.937500   0.812500   x 
            x  Al           7         0.812500   0.562500   0.812500   x 
            x  Al           8         0.937500   0.562500   0.937500   x 
            x  Al           9         0.812500   0.687500   0.937500   x 
            x  Al          10         0.687500   0.687500   0.812500   x 
            x  Al          11         0.312500   0.562500   0.812500   x 
            x  Al          12         0.062500   0.562500   0.812500   x 
            x  Al          13         0.187500   0.687500   0.812500   x 
            x  Al          14         0.812500   0.312500   0.812500   x 
            x  Al          15         0.812500   0.437500   0.937500   x 
            x  Al          16         0.687500   0.437500   0.812500   x 
            x  Al          17         0.312500   0.312500   0.812500   x 
            x  Al          18         0.312500   0.062500   0.812500   x 
            x  Al          19         0.187500   0.187500   0.812500   x 
            x  Al          20         0.937500   0.937500   0.562500   x 
            x  Al          21         0.687500   0.937500   0.562500   x 
            x  Al          22         0.687500   0.812500   0.687500   x 
            x  Al          23         0.437500   0.812500   0.687500   x 
            x  Al          24         0.187500   0.812500   0.687500   x 
            x  Al          25         0.937500   0.562500   0.687500   x 
            x  Al          26         0.312500   0.562500   0.562500   x 
            x  Al          27         0.062500   0.687500   0.687500   x 
            x  Al          28         0.812500   0.312500   0.562500   x 
            x  Al          29         0.562500   0.437500   0.687500   x 
            x  Al          30         0.062500   0.312500   0.562500   x 
            x  Al          31         0.187500   0.437500   0.562500   x 
            x  Al          32         0.062500   0.437500   0.687500   x 
            x  Al          33         0.937500   0.187500   0.562500   x 
            x  Al          34         0.937500   0.062500   0.687500   x 
            x  Al          35         0.562500   0.062500   0.562500   x 
            x  Al          36         0.687500   0.187500   0.562500   x 
            x  Al          37         0.562500   0.812500   0.312500   x 
            x  Al          38         0.687500   0.937500   0.312500   x 
            x  Al          39         0.562500   0.937500   0.437500   x 
            x  Al          40         0.312500   0.937500   0.437500   x 
            x  Al          41         0.062500   0.937500   0.437500   x 
            x  Al          42         0.562500   0.562500   0.312500   x 
            x  Al          43         0.687500   0.687500   0.312500   x 
            x  Al          44         0.562500   0.687500   0.437500   x 
            x  Al          45         0.312500   0.562500   0.312500   x 
            x  Al          46         0.437500   0.687500   0.312500   x 
            x  Al          47         0.437500   0.562500   0.437500   x 
            x  Al          48         0.187500   0.687500   0.312500   x 
            x  Al          49         0.562500   0.312500   0.312500   x 
            x  Al          50         0.937500   0.062500   0.437500   x 
            x  Al          51         0.562500   0.187500   0.437500   x 
            x  Al          52         0.312500   0.062500   0.312500   x 
            x  Al          53         0.187500   0.187500   0.312500   x 
            x  Al          54         0.062500   0.187500   0.437500   x 
            x  Al          55         0.937500   0.812500   0.187500   x 
            x  Al          56         0.687500   0.812500   0.187500   x 
            x  Al          57         0.937500   0.562500   0.187500   x 
            x  Al          58         0.562500   0.687500   0.187500   x 
            x  Al          59         0.312500   0.687500   0.187500   x 
            x  Al          60         0.062500   0.687500   0.187500   x 
            x  Al          61         0.937500   0.437500   0.062500   x 
            x  Al          62         0.687500   0.312500   0.187500   x 
            x  Al          63         0.437500   0.312500   0.187500   x 
            x  Al          64         0.562500   0.062500   0.062500   x 
            x  Ni           1         0.062500   0.187500   0.187500   x 
            x  Ni           2         0.187500   0.062500   0.187500   x 
            x  Ni           3         0.187500   0.187500   0.062500   x 
            x  Ni           4         0.062500   0.062500   0.062500   x 
            x  Ni           5         0.312500   0.187500   0.187500   x 
            x  Ni           6         0.437500   0.062500   0.187500   x 
            x  Ni           7         0.437500   0.187500   0.062500   x 
            x  Ni           8         0.312500   0.062500   0.062500   x 
            x  Ni           9         0.562500   0.187500   0.187500   x 
            x  Ni          10         0.687500   0.062500   0.187500   x 
            x  Ni          11         0.687500   0.187500   0.062500   x 
            x  Ni          12         0.812500   0.187500   0.187500   x 
            x  Ni          13         0.937500   0.062500   0.187500   x 
            x  Ni          14         0.937500   0.187500   0.062500   x 
            x  Ni          15         0.812500   0.062500   0.062500   x 
            x  Ni          16         0.062500   0.437500   0.187500   x 
            x  Ni          17         0.187500   0.312500   0.187500   x 
            x  Ni          18         0.187500   0.437500   0.062500   x 
            x  Ni          19         0.062500   0.312500   0.062500   x 
            x  Ni          20         0.312500   0.437500   0.187500   x 
            x  Ni          21         0.437500   0.437500   0.062500   x 
            x  Ni          22         0.312500   0.312500   0.062500   x 
            x  Ni          23         0.562500   0.437500   0.187500   x 
            x  Ni          24         0.687500   0.437500   0.062500   x 
            x  Ni          25         0.562500   0.312500   0.062500   x 
            x  Ni          26         0.812500   0.437500   0.187500   x 
            x  Ni          27         0.937500   0.312500   0.187500   x 
            x  Ni          28         0.812500   0.312500   0.062500   x 
            x  Ni          29         0.187500   0.562500   0.187500   x 
            x  Ni          30         0.187500   0.687500   0.062500   x 
            x  Ni          31         0.062500   0.562500   0.062500   x 
            x  Ni          32         0.437500   0.562500   0.187500   x 
            x  Ni          33         0.437500   0.687500   0.062500   x 
            x  Ni          34         0.312500   0.562500   0.062500   x 
            x  Ni          35         0.687500   0.562500   0.187500   x 
            x  Ni          36         0.687500   0.687500   0.062500   x 
            x  Ni          37         0.562500   0.562500   0.062500   x 
            x  Ni          38         0.812500   0.687500   0.187500   x 
            x  Ni          39         0.937500   0.687500   0.062500   x 
            x  Ni          40         0.812500   0.562500   0.062500   x 
            x  Ni          41         0.062500   0.937500   0.187500   x 
            x  Ni          42         0.187500   0.812500   0.187500   x 
            x  Ni          43         0.187500   0.937500   0.062500   x 
            x  Ni          44         0.062500   0.812500   0.062500   x 
            x  Ni          45         0.312500   0.937500   0.187500   x 
            x  Ni          46         0.437500   0.812500   0.187500   x 
            x  Ni          47         0.437500   0.937500   0.062500   x 
            x  Ni          48         0.312500   0.812500   0.062500   x 
            x  Ni          49         0.562500   0.937500   0.187500   x 
            x  Ni          50         0.687500   0.937500   0.062500   x 
            x  Ni          51         0.562500   0.812500   0.062500   x 
            x  Ni          52         0.812500   0.937500   0.187500   x 
            x  Ni          53         0.937500   0.937500   0.062500   x 
            x  Ni          54         0.812500   0.812500   0.062500   x 
            x  Ni          55         0.187500   0.062500   0.437500   x 
            x  Ni          56         0.062500   0.062500   0.312500   x 
            x  Ni          57         0.312500   0.187500   0.437500   x 
            x  Ni          58         0.437500   0.062500   0.437500   x 
            x  Ni          59         0.437500   0.187500   0.312500   x 
            x  Ni          60         0.687500   0.062500   0.437500   x 
            x  Ni          61         0.687500   0.187500   0.312500   x 
            x  Ni          62         0.562500   0.062500   0.312500   x 
            x  Ni          63         0.812500   0.187500   0.437500   x 
            x  Ni          64         0.937500   0.187500   0.312500   x 
            x  Ni          65         0.812500   0.062500   0.312500   x 
            x  Ni          66         0.062500   0.437500   0.437500   x 
            x  Ni          67         0.187500   0.312500   0.437500   x 
            x  Ni          68         0.187500   0.437500   0.312500   x 
            x  Ni          69         0.062500   0.312500   0.312500   x 
            x  Ni          70         0.312500   0.437500   0.437500   x 
            x  Ni          71         0.437500   0.312500   0.437500   x 
            x  Ni          72         0.437500   0.437500   0.312500   x 
            x  Ni          73         0.312500   0.312500   0.312500   x 
            x  Ni          74         0.562500   0.437500   0.437500   x 
            x  Ni          75         0.687500   0.312500   0.437500   x 
            x  Ni          76         0.687500   0.437500   0.312500   x 
            x  Ni          77         0.812500   0.437500   0.437500   x 
            x  Ni          78         0.937500   0.312500   0.437500   x 
            x  Ni          79         0.937500   0.437500   0.312500   x 
            x  Ni          80         0.812500   0.312500   0.312500   x 
            x  Ni          81         0.062500   0.687500   0.437500   x 
            x  Ni          82         0.187500   0.562500   0.437500   x 
            x  Ni          83         0.062500   0.562500   0.312500   x 
            x  Ni          84         0.312500   0.687500   0.437500   x 
            x  Ni          85         0.687500   0.562500   0.437500   x 
            x  Ni          86         0.812500   0.687500   0.437500   x 
            x  Ni          87         0.937500   0.562500   0.437500   x 
            x  Ni          88         0.937500   0.687500   0.312500   x 
            x  Ni          89         0.812500   0.562500   0.312500   x 
            x  Ni          90         0.187500   0.812500   0.437500   x 
            x  Ni          91         0.187500   0.937500   0.312500   x 
            x  Ni          92         0.062500   0.812500   0.312500   x 
            x  Ni          93         0.437500   0.812500   0.437500   x 
            x  Ni          94         0.437500   0.937500   0.312500   x 
            x  Ni          95         0.312500   0.812500   0.312500   x 
            x  Ni          96         0.687500   0.812500   0.437500   x 
            x  Ni          97         0.812500   0.937500   0.437500   x 
            x  Ni          98         0.937500   0.812500   0.437500   x 
            x  Ni          99         0.937500   0.937500   0.312500   x 
            x  Ni         100         0.812500   0.812500   0.312500   x 
            x  Ni         101         0.062500   0.187500   0.687500   x 
            x  Ni         102         0.187500   0.062500   0.687500   x 
            x  Ni         103         0.187500   0.187500   0.562500   x 
            x  Ni         104         0.062500   0.062500   0.562500   x 
            x  Ni         105         0.312500   0.187500   0.687500   x 
            x  Ni         106         0.437500   0.062500   0.687500   x 
            x  Ni         107         0.437500   0.187500   0.562500   x 
            x  Ni         108         0.312500   0.062500   0.562500   x 
            x  Ni         109         0.562500   0.187500   0.687500   x 
            x  Ni         110         0.687500   0.062500   0.687500   x 
            x  Ni         111         0.812500   0.187500   0.687500   x 
            x  Ni         112         0.812500   0.062500   0.562500   x 
            x  Ni         113         0.187500   0.312500   0.687500   x 
            x  Ni         114         0.312500   0.437500   0.687500   x 
            x  Ni         115         0.437500   0.312500   0.687500   x 
            x  Ni         116         0.437500   0.437500   0.562500   x 
            x  Ni         117         0.312500   0.312500   0.562500   x 
            x  Ni         118         0.687500   0.312500   0.687500   x 
            x  Ni         119         0.687500   0.437500   0.562500   x 
            x  Ni         120         0.562500   0.312500   0.562500   x 
            x  Ni         121         0.812500   0.437500   0.687500   x 
            x  Ni         122         0.937500   0.312500   0.687500   x 
            x  Ni         123         0.937500   0.437500   0.562500   x 
            x  Ni         124         0.187500   0.562500   0.687500   x 
            x  Ni         125         0.187500   0.687500   0.562500   x 
            x  Ni         126         0.062500   0.562500   0.562500   x 
            x  Ni         127         0.312500   0.687500   0.687500   x 
            x  Ni         128         0.437500   0.562500   0.687500   x 
            x  Ni         129         0.437500   0.687500   0.562500   x 
            x  Ni         130         0.562500   0.687500   0.687500   x 
            x  Ni         131         0.687500   0.562500   0.687500   x 
            x  Ni         132         0.687500   0.687500   0.562500   x 
            x  Ni         133         0.562500   0.562500   0.562500   x 
            x  Ni         134         0.812500   0.687500   0.687500   x 
            x  Ni         135         0.937500   0.687500   0.562500   x 
            x  Ni         136         0.812500   0.562500   0.562500   x 
            x  Ni         137         0.062500   0.937500   0.687500   x 
            x  Ni         138         0.187500   0.937500   0.562500   x 
            x  Ni         139         0.062500   0.812500   0.562500   x 
            x  Ni         140         0.312500   0.937500   0.687500   x 
            x  Ni         141         0.437500   0.937500   0.562500   x 
            x  Ni         142         0.312500   0.812500   0.562500   x 
            x  Ni         143         0.562500   0.937500   0.687500   x 
            x  Ni         144         0.562500   0.812500   0.562500   x 
            x  Ni         145         0.812500   0.937500   0.687500   x 
            x  Ni         146         0.937500   0.812500   0.687500   x 
            x  Ni         147         0.812500   0.812500   0.562500   x 
            x  Ni         148         0.062500   0.187500   0.937500   x 
            x  Ni         149         0.187500   0.062500   0.937500   x 
            x  Ni         150         0.062500   0.062500   0.812500   x 
            x  Ni         151         0.312500   0.187500   0.937500   x 
            x  Ni         152         0.437500   0.062500   0.937500   x 
            x  Ni         153         0.437500   0.187500   0.812500   x 
            x  Ni         154         0.562500   0.187500   0.937500   x 
            x  Ni         155         0.687500   0.062500   0.937500   x 
            x  Ni         156         0.687500   0.187500   0.812500   x 
            x  Ni         157         0.562500   0.062500   0.812500   x 
            x  Ni         158         0.812500   0.187500   0.937500   x 
            x  Ni         159         0.937500   0.062500   0.937500   x 
            x  Ni         160         0.937500   0.187500   0.812500   x 
            x  Ni         161         0.812500   0.062500   0.812500   x 
            x  Ni         162         0.062500   0.437500   0.937500   x 
            x  Ni         163         0.187500   0.312500   0.937500   x 
            x  Ni         164         0.187500   0.437500   0.812500   x 
            x  Ni         165         0.062500   0.312500   0.812500   x 
            x  Ni         166         0.312500   0.437500   0.937500   x 
            x  Ni         167         0.437500   0.312500   0.937500   x 
            x  Ni         168         0.437500   0.437500   0.812500   x 
            x  Ni         169         0.562500   0.437500   0.937500   x 
            x  Ni         170         0.687500   0.312500   0.937500   x 
            x  Ni         171         0.562500   0.312500   0.812500   x 
            x  Ni         172         0.937500   0.312500   0.937500   x 
            x  Ni         173         0.937500   0.437500   0.812500   x 
            x  Ni         174         0.062500   0.687500   0.937500   x 
            x  Ni         175         0.187500   0.562500   0.937500   x 
            x  Ni         176         0.312500   0.687500   0.937500   x 
            x  Ni         177         0.437500   0.562500   0.937500   x 
            x  Ni         178         0.437500   0.687500   0.812500   x 
            x  Ni         179         0.562500   0.687500   0.937500   x 
            x  Ni         180         0.687500   0.562500   0.937500   x 
            x  Ni         181         0.562500   0.562500   0.812500   x 
            x  Ni         182         0.937500   0.687500   0.812500   x 
            x  Ni         183         0.062500   0.937500   0.937500   x 
            x  Ni         184         0.187500   0.812500   0.937500   x 
            x  Ni         185         0.062500   0.812500   0.812500   x 
            x  Ni         186         0.312500   0.937500   0.937500   x 
            x  Ni         187         0.437500   0.812500   0.937500   x 
            x  Ni         188         0.312500   0.812500   0.812500   x 
            x  Ni         189         0.562500   0.812500   0.812500   x 
            x  Ni         190         0.812500   0.937500   0.937500   x 
            x  Ni         191         0.937500   0.812500   0.937500   x 
            x  Ni         192         0.812500   0.812500   0.812500   x 
            xxxxxxxxxxxxxxxxxxxxxxxxxxxxxxxxxxxxxxxxxxxxxxxxxxxxxxxxxxxx
 
 
                         No user defined ionic velocities
 
                           -------------------------------
                                   Details of Species
                           -------------------------------
 
                               Mass of species in AMU
                                    Al   26.9815400
                                    Ni   58.6934000
 
                          Electric Quadrupole Moment (Barn)
                                    Al    0.1466000 Isotope 27
                                    Ni    0.1620000 Isotope 61
 
                          Files used for pseudopotentials:
                                    Al 3|2.2|2.2|1.4|4|5|5|30:31:32U2U2
                                    Ni 3|2.4|2.4|1.0|8|9|10|40:41:32U2U2(qc=5.5)
 
                           -------------------------------
                              k-Points For BZ Sampling
                           -------------------------------
                       MP grid size for SCF calculation is  1  1  1
                            with an offset of   0.000  0.000  0.000
                       Number of kpoints used =             1
 
                           -------------------------------
                               Symmetry and Constraints
                           -------------------------------
 
                      Maximum deviation from symmetry =  0.00000         ANG
 
                      Number of symmetry operations   =           1
                      Number of ionic constraints     =           3
                      Point group of crystal =     1: C1, 1, 1
                      Space group of crystal =     1: P1, P 1
 
             Set iprint > 1 for details on symmetry rotations/translations
 
                         Centre of mass is constrained
             Set iprint > 1 for details of linear ionic constraints
 
                         Number of cell constraints= 0
                         Cell constraints are:  1 2 3 4 5 6
 
                         External pressure/stress (GPa)
                          0.00000   0.00000   0.00000
                                    0.00000   0.00000
                                              0.00000
  
+---------------- MEMORY AND SCRATCH DISK ESTIMATES PER PROCESS --------------+
|                                                     Memory          Disk    |
| Baseline code, static data and system overhead     6721.0 MB         0.0 MB |
| BLAS internal memory storage                          0.0 MB         0.0 MB |
| Model and support data                              703.7 MB         0.0 MB |
| Electronic energy minimisation requirements         158.6 MB         0.0 MB |
| Force calculation requirements                        5.4 MB         0.0 MB |
|                                               ----------------------------- |
| Approx. total storage required per process         7583.3 MB         0.0 MB |
|                                                                             |
| Requirements will fluctuate during execution and may exceed these estimates |
+-----------------------------------------------------------------------------+
Calculating finite basis set correction with  3 cut-off energies.
Calculating total energy with cut-off of  890.000 eV.
------------------------------------------------------------------------ <-- SCF
SCF loop      Energy           Fermi           Energy gain       Timer   <-- SCF
                               energy          per atom          (sec)   <-- SCF
------------------------------------------------------------------------ <-- SCF
Initial  -2.20615114E+005  0.00000000E+000                        22.27  <-- SCF
      1  -2.63538018E+005  7.24343228E+000   1.67667592E+002      63.36  <-- SCF
      2  -2.70701460E+005  3.89345581E+000   2.79821969E+001      97.89  <-- SCF
      3  -2.71440952E+005  3.74494440E+000   2.88864228E+000     135.14  <-- SCF
      4  -2.71503481E+005  3.88018654E+000   2.44253662E-001     166.19  <-- SCF
      5  -2.71859833E+005  6.78312617E+000   1.39199848E+000     207.36  <-- SCF
      6  -2.71599735E+005  5.71247146E+000  -1.01600898E+000     255.86  <-- SCF
      7  -2.71505741E+005  4.86640314E+000  -3.67162354E-001     297.32  <-- SCF
      8  -2.71477652E+005  4.52032846E+000  -1.09722442E-001     342.53  <-- SCF
      9  -2.71472888E+005  4.51468376E+000  -1.86090774E-002     382.99  <-- SCF
     10  -2.71489043E+005  4.64156619E+000   6.31063242E-002     423.55  <-- SCF
     11  -2.71474921E+005  4.51993185E+000  -5.51665874E-002     465.34  <-- SCF
     12  -2.71470194E+005  4.47638205E+000  -1.84635151E-002     505.18  <-- SCF
     13  -2.71470248E+005  4.48060754E+000   2.08811044E-004     545.62  <-- SCF
     14  -2.71470257E+005  4.48705002E+000   3.82187626E-005     585.62  <-- SCF
     15  -2.71469454E+005  4.48581017E+000  -3.13698593E-003     625.29  <-- SCF
     16  -2.71469408E+005  4.48748165E+000  -1.80548445E-004     665.69  <-- SCF
     17  -2.71469454E+005  4.49037016E+000   1.80663791E-004     705.44  <-- SCF
     18  -2.71469341E+005  4.48998500E+000  -4.42223447E-004     744.65  <-- SCF
     19  -2.71469345E+005  4.48962270E+000   1.34992150E-005     784.24  <-- SCF
     20  -2.71469372E+005  4.49207027E+000   1.07313636E-004     823.95  <-- SCF
     21  -2.71469328E+005  4.49174517E+000  -1.73006331E-004     863.05  <-- SCF
     22  -2.71469323E+005  4.49172311E+000  -2.04332923E-005     902.01  <-- SCF
     23  -2.71469325E+005  4.49196073E+000   7.67705619E-006     939.63  <-- SCF
     24  -2.71469323E+005  4.49192975E+000  -6.58375341E-006     975.90  <-- SCF
     25  -2.71469321E+005  4.49200402E+000  -5.68129356E-006    1002.95  <-- SCF
     26  -2.71469321E+005  4.49197041E+000  -3.82383448E-008    1028.02  <-- SCF
     27  -2.71469321E+005  4.49204667E+000   3.99300090E-007    1053.19  <-- SCF
------------------------------------------------------------------------ <-- SCF
 
Final energy, E             =  -271463.7446808     eV
Final free energy (E-TS)    =  -271469.3214943     eV
(energies not corrected for finite basis set)
 
NB est. 0K energy (E-0.5TS)      =  -271466.5330875     eV
 
Calculating total energy with cut-off of  895.000 eV.
------------------------------------------------------------------------ <-- SCF
SCF loop      Energy           Fermi           Energy gain       Timer   <-- SCF
                               energy          per atom          (sec)   <-- SCF
------------------------------------------------------------------------ <-- SCF
Initial  -2.71463738E+005  0.00000000E+000                      1065.88  <-- SCF
      1  -2.71469843E+005  4.50227224E+000   2.38466758E-002    1104.88  <-- SCF
      2  -2.71469843E+005  4.50227121E+000   2.59657133E-006    1139.93  <-- SCF
      3  -2.71570898E+005  4.90451870E+000   3.94744904E-001    1182.89  <-- SCF
      4  -2.71500750E+005  4.55672099E+000  -2.74014586E-001    1227.24  <-- SCF
      5  -2.71473762E+005  4.46183954E+000  -1.05423180E-001    1267.37  <-- SCF
      6  -2.71470268E+005  4.44372957E+000  -1.36491057E-002    1307.96  <-- SCF
      7  -2.71470028E+005  4.46924268E+000  -9.36927058E-004    1348.54  <-- SCF
      8  -2.71469681E+005  4.49290652E+000  -1.35380114E-003    1389.09  <-- SCF
      9  -2.71469423E+005  4.49887765E+000  -1.00994437E-003    1429.34  <-- SCF
     10  -2.71469382E+005  4.49361630E+000  -1.57972325E-004    1469.78  <-- SCF
     11  -2.71469339E+005  4.48667707E+000  -1.70155694E-004    1509.26  <-- SCF
     12  -2.71469333E+005  4.48560704E+000  -2.16569892E-005    1548.37  <-- SCF
     13  -2.71469333E+005  4.48845578E+000  -1.17139818E-006    1587.53  <-- SCF
     14  -2.71469327E+005  4.49006517E+000  -2.37605751E-005    1625.99  <-- SCF
     15  -2.71469326E+005  4.49068424E+000  -3.54137355E-006    1662.75  <-- SCF
     16  -2.71469325E+005  4.49129962E+000  -3.87803626E-006    1700.39  <-- SCF
     17  -2.71469322E+005  4.49218281E+000  -1.11051076E-005    1736.98  <-- SCF
     18  -2.71469322E+005  4.49221353E+000  -1.14043342E-006    1762.22  <-- SCF
     19  -2.71469322E+005  4.49212312E+000   4.22487412E-007    1787.41  <-- SCF
     20  -2.71469322E+005  4.49200808E+000  -2.83681732E-007    1812.50  <-- SCF
------------------------------------------------------------------------ <-- SCF
 
Final energy, E             =  -271463.7449634     eV
Final free energy (E-TS)    =  -271469.3218247     eV
(energies not corrected for finite basis set)
 
NB est. 0K energy (E-0.5TS)      =  -271466.5333941     eV
 
Calculating total energy with cut-off of  900.000 eV.
------------------------------------------------------------------------ <-- SCF
SCF loop      Energy           Fermi           Energy gain       Timer   <-- SCF
                               energy          per atom          (sec)   <-- SCF
------------------------------------------------------------------------ <-- SCF
Initial  -2.71463740E+005  0.00000000E+000                      1825.07  <-- SCF
      1  -2.71469670E+005  4.49776664E+000   2.31625209E-002    1865.67  <-- SCF
      2  -2.71469670E+005  4.49776602E+000   1.61852013E-006    1898.50  <-- SCF
      3  -2.71554759E+005  4.83826534E+000   3.32377466E-001    1941.95  <-- SCF
      4  -2.71486171E+005  4.53509051E+000  -2.67923335E-001    1989.15  <-- SCF
      5  -2.71470999E+005  4.46401087E+000  -5.92650094E-002    2031.93  <-- SCF
      6  -2.71469557E+005  4.46466140E+000  -5.63308974E-003    2073.55  <-- SCF
      7  -2.71469563E+005  4.47969276E+000   2.25939536E-005    2115.67  <-- SCF
      8  -2.71469473E+005  4.49394664E+000  -3.50473116E-004    2156.95  <-- SCF
      9  -2.71469361E+005  4.49833969E+000  -4.35324431E-004    2197.64  <-- SCF
     10  -2.71469351E+005  4.49183523E+000  -3.87462029E-005    2238.81  <-- SCF
     11  -2.71469332E+005  4.48720407E+000  -7.77610205E-005    2278.75  <-- SCF
     12  -2.71469330E+005  4.48727671E+000  -5.41357352E-006    2318.76  <-- SCF
     13  -2.71469328E+005  4.48944214E+000  -7.43124177E-006    2357.59  <-- SCF
     14  -2.71469325E+005  4.49055508E+000  -1.17186156E-005    2394.58  <-- SCF
     15  -2.71469326E+005  4.49072724E+000   1.27953801E-006    2429.60  <-- SCF
     16  -2.71469325E+005  4.49170118E+000  -1.48868698E-006    2466.72  <-- SCF
     17  -2.71469322E+005  4.49178759E+000  -1.10629089E-005    2502.13  <-- SCF
     18  -2.71469322E+005  4.49192537E+000  -1.02026905E-006    2527.85  <-- SCF
     19  -2.71469322E+005  4.49201046E+000   6.42974145E-007    2553.52  <-- SCF
     20  -2.71469322E+005  4.49208966E+000  -6.30555949E-007    2579.28  <-- SCF
------------------------------------------------------------------------ <-- SCF
 
Final energy, E             =  -271463.7448202     eV
Final free energy (E-TS)    =  -271469.3220814     eV
(energies not corrected for finite basis set)
 
NB est. 0K energy (E-0.5TS)      =  -271466.5334508     eV
 
 For future reference: finite basis dEtot/dlog(Ecut) =      -0.057655eV
 Total energy corrected for finite basis set = -271469.322154 eV
 
+---------------- MEMORY AND SCRATCH DISK ESTIMATES PER PROCESS --------------+
|                                                     Memory          Disk    |
| Model and support data                              723.2 MB         0.0 MB |
| Electronic energy minimisation requirements         158.6 MB         0.0 MB |
| Geometry minimisation requirements                  195.6 MB         0.0 MB |
|                                               ----------------------------- |
| Approx. total storage required per process         1077.4 MB         0.0 MB |
|                                                                             |
| Requirements will fluctuate during execution and may exceed these estimates |
+-----------------------------------------------------------------------------+
 
 
 ************************************** Forces **************************************
 *                                                                                  *
 *                           Cartesian components (eV/A)                            *
 * -------------------------------------------------------------------------------- *
 *                         x                    y                    z              *
 *                                                                                  *
 * Al              1      0.05379             -0.66429              0.87818         *
 * Al              2      0.72019              1.62349             -0.66644         *
 * Al              3      0.05417             -0.00603              1.63541         *
 * Al              4     -0.78071              0.12597              0.82451         *
 * Al              5     -0.07950              0.14049              0.05456         *
 * Al              6     -0.72188              0.02911              0.86831         *
 * Al              7     -0.08648             -0.00545             -1.50708         *
 * Al              8      1.59276              0.73429              0.85183         *
 * Al              9      0.69803              0.81551              1.59164         *
 * Al             10     -1.57685             -0.88299             -0.72304         *
 * Al             11      0.80495             -0.77534              0.10085         *
 * Al             12      0.82373             -0.71913              1.58985         *
 * Al             13      0.80693              0.74172              1.63368         *
 * Al             14      0.61063             -1.64708             -0.64367         *
 * Al             15     -0.79681             -0.82522              1.62431         *
 * Al             16     -1.62143             -0.05737              0.02767         *
 * Al             17      0.86490              0.69784              0.13374         *
 * Al             18      0.74796              0.77411              0.04739         *
 * Al             19     -1.44430              0.00523              0.11398         *
 * Al             20     -0.72965             -1.65897              0.66120         *
 * Al             21      1.49633             -0.04156              0.02600         *
 * Al             22     -0.00224             -0.76872             -0.84594         *
 * Al             23     -0.07599             -0.71413             -0.77826         *
 * Al             24      0.74950              0.67148             -1.52655         *
 * Al             25     -1.47183             -0.03180             -1.62741         *
 * Al             26      0.02739              0.72396              0.68207         *
 * Al             27     -0.69226              0.74438             -1.61037         *
 * Al             28     -0.00823              1.46059             -0.01370         *
 * Al             29     -0.79902             -0.04659             -0.65175         *
 * Al             30      0.01506              0.04226             -0.07532         *
 * Al             31      0.77663             -0.00827             -0.77824         *
 * Al             32      0.06306             -0.76639              0.69069         *
 * Al             33     -0.82224              0.10374              0.73774         *
 * Al             34     -0.06649              0.88816              0.87865         *
 * Al             35     -1.54871              0.03013              1.61463         *
 * Al             36      0.74430              0.14270              0.79492         *
 * Al             37     -1.38785              1.28079             -0.12721         *
 * Al             38      1.52755              1.49782             -0.19830         *
 * Al             39     -1.54366              0.01552             -0.02575         *
 * Al             40     -0.06810             -0.74451              0.79947         *
 * Al             41      1.53254             -0.79075             -0.80242         *
 * Al             42      0.66576             -2.84677             -0.59999         *
 * Al             43      2.91351             -0.70526              0.57553         *
 * Al             44      0.65516              0.52932              2.81948         *
 * Al             45     -0.84429             -2.31965             -0.02253         *
 * Al             46     -1.29964              1.38766              0.13612         *
 * Al             47      0.07471             -1.49394              1.50944         *
 * Al             48     -0.81450              0.78678              1.44481         *
 * Al             49      0.03099              0.76186              0.70740         *
 * Al             50     -1.59507              0.05223             -1.63459         *
 * Al             51     -0.79973              0.10061             -0.77302         *
 * Al             52      0.63593              0.03024             -0.82916         *
 * Al             53     -0.00478              0.73286             -0.82139         *
 * Al             54      0.74279              0.09759             -0.84712         *
 * Al             55     -0.73436              0.80277             -0.05153         *
 * Al             56      1.46137              0.73148             -2.22116         *
 * Al             57     -0.70010             -0.03653              0.78361         *
 * Al             58     -0.63729             -0.66127             -2.89851         *
 * Al             59     -0.03912              0.72145             -2.43224         *
 * Al             60      0.77470             -0.01973             -0.76184         *
 * Al             61      0.76336             -1.59958              0.80340         *
 * Al             62      0.75678             -0.02251             -0.80827         *
 * Al             63     -0.78599              0.00149             -0.86840         *
 * Al             64      0.05258              0.79181              0.63958         *
 * Ni              1     -0.05253              0.02822             -0.10360         *
 * Ni              2     -0.00279              0.00585             -0.00629         *
 * Ni              3      0.01760             -0.00125              0.04285         *
 * Ni              4     -0.02919             -0.00162             -0.00960         *
 * Ni              5     -0.13663             -0.10294             -0.15609         *
 * Ni              6     -0.06363              0.02568             -0.02318         *
 * Ni              7     -0.03121              0.04459             -0.06140         *
 * Ni              8      0.07987             -0.01976              0.06836         *
 * Ni              9     -0.03088              0.17880              0.18779         *
 * Ni             10      0.15191              0.21004              0.00454         *
 * Ni             11      0.11332             -0.04180             -0.07479         *
 * Ni             12      0.03547             -0.14822             -0.01326         *
 * Ni             13      0.02811             -0.02964              0.09197         *
 * Ni             14     -0.05689              0.07001              0.01749         *
 * Ni             15     -0.05349             -0.04253              0.02636         *
 * Ni             16     -0.05812             -0.00673             -0.03308         *
 * Ni             17      0.04928              0.06291             -0.06413         *
 * Ni             18     -0.07359              0.00376              0.00041         *
 * Ni             19      0.11241             -0.06745              0.09274         *
 * Ni             20     -0.06603             -0.09992             -0.16661         *
 * Ni             21     -0.03619              0.07596             -0.09403         *
 * Ni             22     -0.10940             -0.00679             -0.09322         *
 * Ni             23      0.02215             -0.27534             -0.09626         *
 * Ni             24     -0.18489             -0.00597              0.08830         *
 * Ni             25     -0.02757             -0.01974             -0.16523         *
 * Ni             26      0.08054              0.09563              0.06402         *
 * Ni             27     -0.01265             -0.09441              0.06472         *
 * Ni             28      0.12078             -0.10399             -0.11763         *
 * Ni             29      0.21085              0.26983              0.31220         *
 * Ni             30     -0.02340              0.00469             -0.23221         *
 * Ni             31     -0.05222             -0.09787              0.06799         *
 * Ni             32     -0.07165              0.35753              0.31301         *
 * Ni             33     -0.00146             -0.00240             -0.04632         *
 * Ni             34     -0.02010             -0.09219             -0.08568         *
 * Ni             35     -0.21329             -0.02029              0.22586         *
 * Ni             36     -0.02496             -0.07703              0.04654         *
 * Ni             37      0.05771             -0.07738             -0.12413         *
 * Ni             38     -0.12548              0.04327             -0.08318         *
 * Ni             39      0.17942              0.10398              0.12890         *
 * Ni             40      0.24463             -0.23292             -0.30480         *
 * Ni             41      0.03621              0.08536             -0.07582         *
 * Ni             42     -0.01555             -0.01072              0.08110         *
 * Ni             43     -0.05724             -0.05942              0.05853         *
 * Ni             44     -0.00007              0.04021              0.03750         *
 * Ni             45     -0.04717             -0.04334             -0.14905         *
 * Ni             46      0.05426             -0.13358              0.29206         *
 * Ni             47      0.00446              0.04819             -0.04052         *
 * Ni             48     -0.03638              0.06718             -0.05166         *
 * Ni             49      0.06763             -0.33391              0.24424         *
 * Ni             50      0.07449              0.17661             -0.20257         *
 * Ni             51     -0.18330             -0.05769             -0.00960         *
 * Ni             52     -0.03990              0.19870             -0.06399         *
 * Ni             53      0.02792              0.03565             -0.02143         *
 * Ni             54      0.10034              0.08849             -0.18266         *
 * Ni             55      0.28048              0.24068              0.05353         *
 * Ni             56     -0.12769              0.05969             -0.04180         *
 * Ni             57      0.02090              0.05754              0.00102         *
 * Ni             58     -0.03135              0.10224              0.10736         *
 * Ni             59      0.12954              0.21593              0.01176         *
 * Ni             60     -0.29383              0.00909              0.41134         *
 * Ni             61     -0.07198              0.05988             -0.16008         *
 * Ni             62     -0.05085             -0.06110             -0.15295         *
 * Ni             63      0.09378              0.09974              0.10660         *
 * Ni             64      0.08830             -0.04575             -0.03832         *
 * Ni             65      0.03141              0.05567             -0.17957         *
 * Ni             66      0.04406             -0.05071             -0.03636         *
 * Ni             67     -0.11842             -0.02531              0.08379         *
 * Ni             68     -0.05050             -0.14430              0.00154         *
 * Ni             69     -0.03765              0.00118             -0.07084         *
 * Ni             70      0.10587              0.13440             -0.00142         *
 * Ni             71     -0.01567              0.02464             -0.00478         *
 * Ni             72     -0.06841              0.09636              0.13150         *
 * Ni             73     -0.00949              0.09277              0.02565         *
 * Ni             74     -0.00113              0.03297              0.17650         *
 * Ni             75     -0.00102             -0.03400              0.02071         *
 * Ni             76      0.14797             -0.06501              0.07811         *
 * Ni             77      0.00068              0.11465             -0.13986         *
 * Ni             78      0.24745             -0.22335              0.22461         *
 * Ni             79     -0.06701             -0.08233              0.02114         *
 * Ni             80      0.06952             -0.02675              0.05985         *
 * Ni             81     -0.05843             -0.00438              0.06220         *
 * Ni             82     -0.11957             -0.07066             -0.01716         *
 * Ni             83     -0.00247              0.05945             -0.12193         *
 * Ni             84      0.23367             -0.26242             -0.23562         *
 * Ni             85     -0.12613              0.17589             -0.15562         *
 * Ni             86      0.02757             -0.00654              0.12032         *
 * Ni             87     -0.00777             -0.06697              0.02266         *
 * Ni             88      0.06345             -0.03302             -0.11762         *
 * Ni             89     -0.00889             -0.11398              0.03061         *
 * Ni             90     -0.02524             -0.03316              0.22382         *
 * Ni             91      0.02832             -0.05147             -0.14213         *
 * Ni             92     -0.02732             -0.21638             -0.13925         *
 * Ni             93      0.29998             -0.27706             -0.09104         *
 * Ni             94     -0.02284              0.07997             -0.10657         *
 * Ni             95     -0.02170             -0.07797             -0.38595         *
 * Ni             96     -0.27205             -0.00752             -0.35056         *
 * Ni             97      0.24072             -0.08612              0.01205         *
 * Ni             98      0.01199              0.08937             -0.03877         *
 * Ni             99     -0.02125              0.20900              0.02008         *
 * Ni            100     -0.13071             -0.02066              0.13686         *
 * Ni            101     -0.16697             -0.00032             -0.13476         *
 * Ni            102      0.10731              0.04493              0.03670         *
 * Ni            103      0.08416              0.08042              0.00634         *
 * Ni            104     -0.53359             -0.05010             -0.25475         *
 * Ni            105     -0.10876             -0.00963              0.13178         *
 * Ni            106     -0.12967              0.12841              0.06835         *
 * Ni            107      0.11870              0.02771             -0.07805         *
 * Ni            108      0.04471             -0.03722              0.07381         *
 * Ni            109      0.04923              0.02615             -0.03144         *
 * Ni            110      0.00624              0.23314             -0.00845         *
 * Ni            111     -0.00817             -0.17644             -0.21836         *
 * Ni            112      0.34085             -0.12128              0.03240         *
 * Ni            113     -0.05570              0.13330             -0.37912         *
 * Ni            114      0.19615             -0.00044             -0.20560         *
 * Ni            115     -0.01520             -0.17668             -0.11003         *
 * Ni            116     -0.15918             -0.06901             -0.12633         *
 * Ni            117      0.07602             -0.08421              0.05818         *
 * Ni            118     -0.15972             -0.04871              0.14344         *
 * Ni            119     -0.00453              0.07700             -0.12418         *
 * Ni            120     -0.02324             -0.15123             -0.10178         *
 * Ni            121     -0.18413              0.20797              0.19230         *
 * Ni            122      0.18253             -0.19214             -0.15413         *
 * Ni            123      0.19198              0.13365             -0.15395         *
 * Ni            124     -0.28104              0.10497              0.37330         *
 * Ni            125     -0.12954              0.12561             -0.13828         *
 * Ni            126     -0.23180             -0.01217              0.00834         *
 * Ni            127     -0.11885              0.04547              0.19212         *
 * Ni            128      0.09187              0.14090              0.04827         *
 * Ni            129     -0.01760             -0.17959             -0.13840         *
 * Ni            130      0.05692             -0.13561             -0.06206         *
 * Ni            131      0.21198             -0.13218              0.01435         *
 * Ni            132      0.13745             -0.15442              0.00538         *
 * Ni            133      0.03777              0.20647             -0.07572         *
 * Ni            134     -0.01986             -0.00344              0.08085         *
 * Ni            135      0.05116             -0.02065             -0.02835         *
 * Ni            136     -0.10353              0.02758             -0.12596         *
 * Ni            137     -0.14972              0.14512             -0.07415         *
 * Ni            138      0.09653              0.06014              0.04697         *
 * Ni            139      0.00961             -0.07943             -0.12350         *
 * Ni            140     -0.02396              0.24516              0.02834         *
 * Ni            141     -0.02111              0.13027             -0.07084         *
 * Ni            142     -0.07943             -0.17254             -0.07551         *
 * Ni            143      0.27606              0.02502              0.09964         *
 * Ni            144      0.11367              0.14485              0.02366         *
 * Ni            145     -0.01779              0.05450             -0.02628         *
 * Ni            146     -0.17886              0.01706             -0.09090         *
 * Ni            147     -0.08130             -0.11167             -0.07158         *
 * Ni            148     -0.02213             -0.04534              0.09662         *
 * Ni            149      0.10529              0.01195             -0.00464         *
 * Ni            150     -0.16616             -0.04709              0.12071         *
 * Ni            151     -0.12437              0.02552              0.01118         *
 * Ni            152      0.03117             -0.11919             -0.07434         *
 * Ni            153      0.08575              0.01130              0.02269         *
 * Ni            154     -0.09246             -0.00263             -0.00125         *
 * Ni            155     -0.04439             -0.08084             -0.00467         *
 * Ni            156     -0.10333              0.01243              0.02360         *
 * Ni            157     -0.01387             -0.09239             -0.00069         *
 * Ni            158      0.03889             -0.06778              0.06053         *
 * Ni            159      0.02576              0.15450              0.03219         *
 * Ni            160      0.16645              0.04000              0.17644         *
 * Ni            161      0.17328              0.15691              0.07162         *
 * Ni            162     -0.02139              0.04163             -0.03884         *
 * Ni            163     -0.00654             -0.03277             -0.08683         *
 * Ni            164     -0.14949             -0.05031              0.13793         *
 * Ni            165     -0.08384             -0.11690              0.24515         *
 * Ni            166     -0.02375              0.00611              0.19259         *
 * Ni            167      0.05078             -0.04529              0.09127         *
 * Ni            168      0.14151             -0.01919              0.19427         *
 * Ni            169     -0.15827             -0.02194              0.12066         *
 * Ni            170      0.25836              0.20121             -0.17860         *
 * Ni            171     -0.00531              0.06310              0.03423         *
 * Ni            172     -0.01538              0.01941              0.02143         *
 * Ni            173      0.04806              0.53145              0.23064         *
 * Ni            174     -0.03933             -0.04562             -0.05945         *
 * Ni            175      0.08348              0.05681             -0.08293         *
 * Ni            176     -0.01891             -0.03836             -0.08869         *
 * Ni            177      0.07961             -0.05833              0.10246         *
 * Ni            178      0.06959             -0.03461              0.12100         *
 * Ni            179     -0.07168              0.12952              0.02315         *
 * Ni            180      0.32797             -0.00070             -0.51711         *
 * Ni            181     -0.17197             -0.03978              0.11549         *
 * Ni            182     -0.00229             -0.51426              0.12201         *
 * Ni            183      0.01035              0.05419              0.13024         *
 * Ni            184      0.02602              0.05365              0.22542         *
 * Ni            185      0.43086             -0.30824             -0.08056         *
 * Ni            186     -0.01252              0.01409             -0.11437         *
 * Ni            187     -0.03228             -0.04908              0.05348         *
 * Ni            188     -0.03428             -0.07547              0.17470         *
 * Ni            189      0.28100              0.07064              0.44130         *
 * Ni            190     -0.04606              0.03194              0.11720         *
 * Ni            191      0.15401              0.15330              0.19037         *
 * Ni            192     -0.57257             -0.27633              0.01995         *
 *                                                                                  *
 ************************************************************************************
 
 ***************** Stress Tensor *****************
 *                                               *
 *          Cartesian components (GPa)           *
 * --------------------------------------------- *
 *             x             y             z     *
 *                                               *
 *  x     -0.331925     -0.245079     -0.146917  *
 *  y     -0.245079     -0.781020     -0.035210  *
 *  z     -0.146917     -0.035210     -0.182440  *
 *                                               *
 *  Pressure:    0.4318                          *
 *                                               *
 *************************************************
 EXP precond LBFGS => estimated nearest neighbor distance :  2.555       A
 EXP precond LBFGS => estimated cutoff distance :  5.110       A
 
 ************************************** Forces **************************************
 *                                                                                  *
 *                           Cartesian components (eV/A)                            *
 * -------------------------------------------------------------------------------- *
 *                         x                    y                    z              *
 *                                                                                  *
 * Al              1      0.05379             -0.66429              0.87818         *
 * Al              2      0.72019              1.62349             -0.66644         *
 * Al              3      0.05417             -0.00603              1.63541         *
 * Al              4     -0.78071              0.12597              0.82451         *
 * Al              5     -0.07950              0.14049              0.05456         *
 * Al              6     -0.72188              0.02911              0.86831         *
 * Al              7     -0.08648             -0.00545             -1.50708         *
 * Al              8      1.59276              0.73429              0.85183         *
 * Al              9      0.69803              0.81551              1.59164         *
 * Al             10     -1.57685             -0.88299             -0.72304         *
 * Al             11      0.80495             -0.77534              0.10085         *
 * Al             12      0.82373             -0.71913              1.58985         *
 * Al             13      0.80693              0.74172              1.63368         *
 * Al             14      0.61063             -1.64708             -0.64367         *
 * Al             15     -0.79681             -0.82522              1.62431         *
 * Al             16     -1.62143             -0.05737              0.02767         *
 * Al             17      0.86490              0.69784              0.13374         *
 * Al             18      0.74796              0.77411              0.04739         *
 * Al             19     -1.44430              0.00523              0.11398         *
 * Al             20     -0.72965             -1.65897              0.66120         *
 * Al             21      1.49633             -0.04156              0.02600         *
 * Al             22     -0.00224             -0.76872             -0.84594         *
 * Al             23     -0.07599             -0.71413             -0.77826         *
 * Al             24      0.74950              0.67148             -1.52655         *
 * Al             25     -1.47183             -0.03180             -1.62741         *
 * Al             26      0.02739              0.72396              0.68207         *
 * Al             27     -0.69226              0.74438             -1.61037         *
 * Al             28     -0.00823              1.46059             -0.01370         *
 * Al             29     -0.79902             -0.04659             -0.65175         *
 * Al             30      0.01506              0.04226             -0.07532         *
 * Al             31      0.77663             -0.00827             -0.77824         *
 * Al             32      0.06306             -0.76639              0.69069         *
 * Al             33     -0.82224              0.10374              0.73774         *
 * Al             34     -0.06649              0.88816              0.87865         *
 * Al             35     -1.54871              0.03013              1.61463         *
 * Al             36      0.74430              0.14270              0.79492         *
 * Al             37     -1.38785              1.28079             -0.12721         *
 * Al             38      1.52755              1.49782             -0.19830         *
 * Al             39     -1.54366              0.01552             -0.02575         *
 * Al             40     -0.06810             -0.74451              0.79947         *
 * Al             41      1.53254             -0.79075             -0.80242         *
 * Al             42      0.66576             -2.84677             -0.59999         *
 * Al             43      2.91351             -0.70526              0.57553         *
 * Al             44      0.65516              0.52932              2.81948         *
 * Al             45     -0.84429             -2.31965             -0.02253         *
 * Al             46     -1.29964              1.38766              0.13612         *
 * Al             47      0.07471             -1.49394              1.50944         *
 * Al             48     -0.81450              0.78678              1.44481         *
 * Al             49      0.03099              0.76186              0.70740         *
 * Al             50     -1.59507              0.05223             -1.63459         *
 * Al             51     -0.79973              0.10061             -0.77302         *
 * Al             52      0.63593              0.03024             -0.82916         *
 * Al             53     -0.00478              0.73286             -0.82139         *
 * Al             54      0.74279              0.09759             -0.84712         *
 * Al             55     -0.73436              0.80277             -0.05153         *
 * Al             56      1.46137              0.73148             -2.22116         *
 * Al             57     -0.70010             -0.03653              0.78361         *
 * Al             58     -0.63729             -0.66127             -2.89851         *
 * Al             59     -0.03912              0.72145             -2.43224         *
 * Al             60      0.77470             -0.01973             -0.76184         *
 * Al             61      0.76336             -1.59958              0.80340         *
 * Al             62      0.75678             -0.02251             -0.80827         *
 * Al             63     -0.78599              0.00149             -0.86840         *
 * Al             64      0.05258              0.79181              0.63958         *
 * Ni              1     -0.05253              0.02822             -0.10360         *
 * Ni              2     -0.00279              0.00585             -0.00629         *
 * Ni              3      0.01760             -0.00125              0.04285         *
 * Ni              4     -0.02919             -0.00162             -0.00960         *
 * Ni              5     -0.13663             -0.10294             -0.15609         *
 * Ni              6     -0.06363              0.02568             -0.02318         *
 * Ni              7     -0.03121              0.04459             -0.06140         *
 * Ni              8      0.07987             -0.01976              0.06836         *
 * Ni              9     -0.03088              0.17880              0.18779         *
 * Ni             10      0.15191              0.21004              0.00454         *
 * Ni             11      0.11332             -0.04180             -0.07479         *
 * Ni             12      0.03547             -0.14822             -0.01326         *
 * Ni             13      0.02811             -0.02964              0.09197         *
 * Ni             14     -0.05689              0.07001              0.01749         *
 * Ni             15     -0.05349             -0.04253              0.02636         *
 * Ni             16     -0.05812             -0.00673             -0.03308         *
 * Ni             17      0.04928              0.06291             -0.06413         *
 * Ni             18     -0.07359              0.00376              0.00041         *
 * Ni             19      0.11241             -0.06745              0.09274         *
 * Ni             20     -0.06603             -0.09992             -0.16661         *
 * Ni             21     -0.03619              0.07596             -0.09403         *
 * Ni             22     -0.10940             -0.00679             -0.09322         *
 * Ni             23      0.02215             -0.27534             -0.09626         *
 * Ni             24     -0.18489             -0.00597              0.08830         *
 * Ni             25     -0.02757             -0.01974             -0.16523         *
 * Ni             26      0.08054              0.09563              0.06402         *
 * Ni             27     -0.01265             -0.09441              0.06472         *
 * Ni             28      0.12078             -0.10399             -0.11763         *
 * Ni             29      0.21085              0.26983              0.31220         *
 * Ni             30     -0.02340              0.00469             -0.23221         *
 * Ni             31     -0.05222             -0.09787              0.06799         *
[...]
            Ni 63  -- Ni 112                -0.04        2.60768
            Ni 106 -- Ni 141                 0.05        2.60806
             Al 62 -- Ni 25                  0.15        2.60819
             Al 22 -- Ni 145                 0.17        2.60840
            Ni 105 -- Ni 153                 0.00        2.60841
            Ni 38  -- Ni 100                -0.05        2.60880
             Al 40 -- Ni 55                  0.18        2.60885
            Ni 119 -- Ni 120                 0.05        2.60885
            Ni 115 -- Ni 168                 0.01        2.60899
            Ni 111 -- Ni 118                 0.05        2.60947
             Al 24 -- Ni 137                 0.18        2.60993
             Al 40 -- Ni 91                  0.17        2.60994
            Ni 35  -- Ni 38                  0.08        2.61035
            Ni 138 -- Ni 139                 0.00        2.61042
            Ni 90  -- Ni 95                  0.02        2.61077
            Ni 145 -- Ni 161                 0.00        2.61085
            Ni 31  -- Ni 175                 0.13        2.61103
            Ni 63  -- Ni 64                  0.07        2.61108
             Al 5  -- Ni 189                 0.20        2.61243
            Ni 6   -- Ni 9                   0.09        2.61280
             Al 29 -- Ni 171                 0.15        2.61284
             Al 39 -- Ni 60                  0.19        2.61292
            Ni 18  -- Ni 29                  0.10        2.61338
            Ni 20  -- Ni 68                  0.04        2.61342
            Ni 35  -- Ni 40                  0.13        2.61344
             Al 57 -- Ni 31                  0.14        2.61363
            Ni 16  -- Ni 27                  0.04        2.61368
            Ni 110 -- Ni 161                 0.06        2.61375
            Ni 79  -- Ni 83                  0.08        2.61376
            Ni 10  -- Ni 49                  0.01        2.61382
             Al 20 -- Ni 104                 0.17        2.61444
             Al 2  -- Ni 189                 0.17        2.61449
             Al 49 -- Ni 59                  0.16        2.61450
            Ni 19  -- Ni 27                  0.04        2.61453
            Ni 19  -- Ni 172                 0.06        2.61464
            Ni 123 -- Ni 136                 0.09        2.61468
            Ni 30  -- Ni 42                  0.00        2.61488
            Ni 16  -- Ni 29                  0.09        2.61490
            Ni 29  -- Ni 68                  0.06        2.61493
            Ni 134 -- Ni 135                 0.06        2.61546
            Ni 146 -- Ni 147                 0.02        2.61588
             Al 11 -- Ni 176                 0.16        2.61600
            Ni 137 -- Ni 138                 0.10        2.61626
            Ni 12  -- Ni 61                  0.07        2.61634
            Ni 119 -- Ni 121                 0.01        2.61647
            Ni 116 -- Ni 120                 0.09        2.61680
             Al 11 -- Ni 124                 0.18        2.61732
             Al 4  -- Al 5                   0.23        2.61765
            Ni 137 -- Ni 146                 0.02        2.61766
             Al 33 -- Al 34                  0.23        2.61802
            Ni 128 -- Ni 168                 0.00        2.61810
            Ni 91  -- Ni 92                  0.07        2.61825
            Ni 46  -- Ni 49                  0.06        2.61857
             Al 11 -- Ni 178                 0.15        2.61880
             Al 40 -- Ni 108                 0.17        2.61919
             Al 32 -- Ni 123                 0.16        2.61952
            Ni 114 -- Ni 168                 0.06        2.61975
            Ni 58  -- Ni 62                  0.01        2.62004
            Ni 23  -- Ni 72                 -0.03        2.62019
             Al 8  -- Al 9                   0.25        2.62030
             Al 1  -- Ni 159                 0.17        2.62055
            Ni 30  -- Ni 48                  0.03        2.62056
             Al 18 -- Ni 102                 0.13        2.62060
            Ni 130 -- Ni 181                 0.02        2.62065
            Ni 52  -- Ni 100                -0.02        2.62091
            Ni 5   -- Ni 73                  0.01        2.62124
             Al 45 -- Ni 84                  0.16        2.62157
            Ni 23  -- Ni 35                  0.06        2.62212
            Ni 124 -- Ni 125                 0.01        2.62213
            Ni 77  -- Ni 78                  0.08        2.62234
            Ni 135 -- Ni 136                 0.04        2.62271
             Al 41 -- Ni 98                  0.19        2.62303
            Ni 98  -- Ni 147                 0.06        2.62313
            Ni 21  -- Ni 32                  0.09        2.62328
            Ni 169 -- Ni 180                 0.07        2.62333
             Al 23 -- Ni 188                 0.17        2.62355
            Ni 60  -- Ni 61                  0.12        2.62366
            Ni 105 -- Ni 107                 0.12        2.62381
             Al 3  -- Al 9                   0.25        2.62445
            Ni 60  -- Ni 62                 -0.03        2.62454
             Al 12 -- Al 32                  0.26        2.62475
            Ni 58  -- Ni 94                 -0.01        2.62505
             Al 4  -- Al 64                  0.24        2.62532
            Ni 93  -- Ni 94                 -0.04        2.62532
             Al 64 -- Ni 49                  0.18        2.62538
             Al 30 -- Al 31                  0.26        2.62546
            Ni 65  -- Ni 99                  0.04        2.62554
            Ni 146 -- Ni 192                 0.09        2.62556
            Ni 141 -- Ni 143                 0.07        2.62556
            Ni 24  -- Ni 28                 -0.01        2.62560
            Ni 93  -- Ni 95                  0.03        2.62655
             Al 16 -- Al 29                  0.24        2.62660
            Ni 130 -- Ni 144                 0.05        2.62671
             Al 49 -- Al 51                  0.24        2.62752
             Al 30 -- Al 33                  0.23        2.62785
             Al 63 -- Ni 72                  0.16        2.62802
             Al 30 -- Al 54                  0.23        2.62847
            Ni 77  -- Ni 119                 0.07        2.62912
            Ni 7   -- Ni 9                   0.01        2.62930
            Ni 58  -- Ni 59                  0.06        2.62963
            Ni 90  -- Ni 91                  0.00        2.62967
            Ni 176 -- Ni 184                 0.03        2.62990
            Ni 116 -- Ni 128                -0.02        2.63023
             Al 52 -- Ni 57                  0.16        2.63033
             Al 30 -- Al 32                  0.25        2.63086
             Al 32 -- Ni 126                 0.16        2.63094
            Ni 29  -- Ni 30                  0.01        2.63117
             Al 64 -- Ni 155                 0.14        2.63169
             Al 26 -- Al 47                  0.22        2.63211
             Al 7  -- Al 10                  0.21        2.63233
            Ni 33  -- Ni 37                  0.03        2.63275
            Ni 190 -- Ni 192                -0.01        2.63301
             Al 6  -- Ni 140                 0.14        2.63496
            Ni 96  -- Ni 147                 0.07        2.63722
            Ni 113 -- Ni 165                 0.01        2.63756
            Ni 182 -- Ni 191                 0.09        2.63808
            Ni 121 -- Ni 136                 0.07        2.63851
             Al 21 -- Al 22                  0.25        2.63871
             Al 64 -- Ni 152                 0.16        2.63874
             Al 23 -- Ni 143                 0.18        2.63922
            Ni 178 -- Ni 189                 0.11        2.63928
            Ni 84  -- Ni 95                  0.04        2.63933
             Al 48 -- Al 60                  0.24        2.63944
            Ni 111 -- Ni 160                 0.01        2.63968
            Ni 84  -- Ni 125                 0.07        2.63982
            Ni 114 -- Ni 124                 0.04        2.64122
             Al 52 -- Al 53                  0.24        2.64143
            Ni 134 -- Ni 136                 0.03        2.64163
             Al 5  -- Al 18                  0.23        2.64192
             Al 3  -- Al 4                   0.23        2.64206
             Al 15 -- Ni 173                 0.20        2.64239
            Ni 72  -- Ni 74                 -0.07        2.64243
             Al 28 -- Al 33                  0.22        2.64260
             Al 29 -- Ni 131                 0.16        2.64280
            Ni 31  -- Ni 174                 0.02        2.64373
             Al 37 -- Al 39                  0.21        2.64441
             Al 21 -- Ni 96                  0.17        2.64452
             Al 36 -- Ni 112                 0.14        2.64462
             Al 10 -- Al 22                  0.23        2.64465
             Al 59 -- Ni 95                  0.17        2.64496
             Al 61 -- Ni 31                  0.12        2.64498
            Ni 182 -- Ni 185                 0.13        2.64526
             Al 1  -- Ni 161                 0.13        2.64544
            Ni 38  -- Ni 89                  0.01        2.64655
            Ni 60  -- Ni 112                 0.05        2.64683
             Al 37 -- Al 46                  0.28        2.64693
            Ni 145 -- Ni 192                 0.03        2.64769
            Ni 190 -- Ni 191                 0.04        2.64802
            Ni 179 -- Ni 180                 0.05        2.64808
             Al 53 -- Ni 56                  0.15        2.64914
            Ni 39  -- Ni 40                 -0.05        2.65036
             Al 48 -- Ni 42                  0.12        2.65138
            Ni 145 -- Ni 147                -0.01        2.65141
            Ni 65  -- Ni 97                  0.01        2.65149
             Al 39 -- Ni 96                  0.15        2.65183
             Al 26 -- Ni 82                  0.14        2.65256
             Al 60 -- Ni 88                  0.14        2.65317
             Al 35 -- Ni 58                  0.14        2.65345
            Ni 125 -- Ni 127                 0.00        2.65348
             Al 1  -- Ni 192                 0.17        2.65444
            Ni 84  -- Ni 90                  0.09        2.65467
             Al 51 -- Ni 75                  0.14        2.65512
             Al 27 -- Ni 182                 0.15        2.65695
             Al 9  -- Ni 180                 0.17        2.65787
            Ni 86  -- Ni 96                  0.08        2.65995
             Al 53 -- Ni 55                  0.14        2.66086
            Ni 9   -- Ni 11                  0.00        2.66135
             Al 13 -- Ni 124                 0.16        2.66216
             Al 29 -- Ni 181                 0.15        2.66241
            Ni 132 -- Ni 144                -0.01        2.66272
             Al 18 -- Al 19                  0.23        2.66291
             Al 25 -- Ni 182                 0.13        2.66342
            Ni 90  -- Ni 92                  0.04        2.66383
            Ni 32  -- Ni 37                  0.08        2.66402
            Ni 101 -- Ni 150                 0.04        2.66498
             Al 12 -- Al 13                  0.21        2.66706
             Al 64 -- Ni 47                  0.15        2.66719
             Al 25 -- Ni 173                 0.16        2.66815
             Al 5  -- Al 23                  0.25        2.66854
             Al 24 -- Ni 188                 0.13        2.66909
             Al 48 -- Ni 29                  0.12        2.66956
            Ni 74  -- Ni 76                 -0.01        2.66971
            Ni 60  -- Ni 97                  0.04        2.67115
             Al 10 -- Ni 134                 0.12        2.67167
             Al 17 -- Ni 113                 0.16        2.67197
             Al 15 -- Al 61                  0.21        2.67256
            Ni 23  -- Ni 76                 -0.04        2.67455
            Ni 101 -- Ni 165                 0.01        2.67551
             Al 28 -- Al 36                  0.23        2.67613
             Al 1  -- Al 34                  0.24        2.67676
             Al 26 -- Ni 116                 0.13        2.67834
             Al 35 -- Al 39                  0.22        2.67859
            Ni 103 -- Ni 104                 0.08        2.67921
             Al 21 -- Ni 143                 0.15        2.67995
             Al 24 -- Al 27                  0.22        2.68031
            Ni 23  -- Ni 32                  0.09        2.68032
            Ni 116 -- Ni 133                 0.00        2.68331
             Al 25 -- Al 27                  0.22        2.68511
             Al 28 -- Ni 63                  0.12        2.68521
             Al 8  -- Al 61                  0.20        2.68542
             Al 57 -- Al 61                  0.22        2.68591
             Al 24 -- Ni 185                 0.14        2.68694
            Ni 127 -- Ni 129                 0.04        2.68893
             Al 19 -- Ni 151                 0.12        2.68941
            Ni 50  -- Ni 51                 -0.08        2.69079
             Al 25 -- Al 32                  0.21        2.69125
            Ni 93  -- Ni 141                 0.03        2.69125
            Ni 60  -- Ni 65                  0.06        2.69235
            Ni 191 -- Ni 192                 0.04        2.69322
            Ni 183 -- Ni 185                 0.04        2.69352
            Ni 129 -- Ni 144                 0.06        2.69556
            Ni 36  -- Ni 51                 -0.07        2.69657
             Al 46 -- Al 59                  0.20        2.69794
            Ni 139 -- Ni 146                -0.00        2.69825
             Al 7  -- Al 16                  0.19        2.70012
             Al 57 -- Al 60                  0.20        2.70230
            Ni 50  -- Ni 54                 -0.02        2.70232
             Al 50 -- Al 54                  0.18        2.70365
             Al 28 -- Ni 111                 0.12        2.70373
             Al 6  -- Al 24                  0.22        2.70387
             Al 14 -- Ni 173                 0.17        2.70425
             Al 31 -- Al 32                  0.21        2.70594
             Al 23 -- Ni 140                 0.14        2.70807
             Al 11 -- Al 13                  0.20        2.70965
             Al 6  -- Al 18                  0.21        2.71011
             Al 31 -- Ni 124                 0.12        2.71092
            Ni 102 -- Ni 104                 0.09        2.71249
            Ni 182 -- Ni 192                 0.11        2.71326
             Al 61 -- Ni 40                  0.11        2.71344
            Ni 122 -- Ni 173                 0.09        2.71704
             Al 49 -- Al 62                  0.20        2.71946
             Al 33 -- Al 50                  0.17        2.72008
            Ni 106 -- Ni 143                 0.03        2.72158
            Ni 138 -- Ni 142                -0.02        2.72349
             Al 35 -- Ni 60                  0.14        2.72416
            Ni 140 -- Ni 142                 0.02        2.72698
            Ni 55  -- Ni 104                 0.07        2.72724
            Ni 121 -- Ni 123                 0.00        2.72800
            Ni 130 -- Ni 189                 0.01        2.72947
             Al 45 -- Al 48                  0.20        2.73359
            Ni 36  -- Ni 54                 -0.08        2.73489
             Al 35 -- Al 51                  0.19        2.73489
             Al 14 -- Al 15                  0.21        2.73845
             Al 45 -- Al 47                  0.20        2.73866
             Al 45 -- Al 46                  0.20        2.74002
             Al 40 -- Al 52                  0.21        2.74160
            Ni 96  -- Ni 132                 0.04        2.74230
             Al 42 -- Al 47                  0.20        2.74293
             Al 15 -- Al 16                  0.18        2.74491
             Al 49 -- Al 63                  0.19        2.74544
             Al 35 -- Al 36                  0.19        2.74690
             Al 37 -- Al 38                  0.20        2.74927
             Al 33 -- Al 54                  0.17        2.74973
             Al 2  -- Al 4                   0.17        2.74983
             Al 7  -- Al 9                   0.18        2.75026
             Al 55 -- Al 60                  0.19        2.75032
             Al 7  -- Al 15                  0.20        2.75106
             Al 36 -- Al 51                  0.17        2.76313
             Al 44 -- Al 47                  0.17        2.76828
             Al 21 -- Al 39                  0.17        2.77040
             Al 23 -- Ni 189                 0.13        2.77079
             Al 2  -- Al 22                  0.19        2.77136
             Al 26 -- Ni 70                  0.09        2.77202
             Al 17 -- Al 19                  0.19        2.77206
             Al 21 -- Al 35                  0.16        2.77940
             Al 8  -- Al 15                  0.15        2.78195
             Al 46 -- Al 58                  0.19        2.78443
             Al 13 -- Al 24                  0.17        2.78917
             Al 41 -- Al 50                  0.17        2.79007
             Al 20 -- Al 34                  0.17        2.79008
             Al 14 -- Al 16                  0.18        2.79299
             Al 38 -- Al 56                  0.16        2.79495
             Al 37 -- Al 58                  0.27        2.79612
             Al 46 -- Al 47                  0.15        2.80409
             Al 38 -- Al 39                  0.16        2.80764
             Al 3  -- Al 10                  0.14        2.80952
             Al 42 -- Al 58                  0.19        2.81185
             Al 37 -- Al 56                  0.14        2.81546
             Al 43 -- Al 44                  0.19        2.81606
             Al 2  -- Al 3                   0.13        2.81691
             Al 12 -- Al 27                  0.16        2.81848
             Al 37 -- Al 44                  0.16        2.81893
             Al 20 -- Al 50                  0.13        2.82178
             Al 20 -- Al 41                  0.15        2.82848
             Al 42 -- Al 43                  0.19        2.83216
             Al 44 -- Al 46                  0.25        2.83383
             Al 56 -- Al 58                  0.14        2.83539
             Al 48 -- Al 59                  0.16        2.83748
             Al 43 -- Al 56                  0.15        2.83884
             Al 7  -- Al 8                   0.10        2.84230
             Al 37 -- Al 43                  0.25        2.84876
             Al 13 -- Al 27                  0.12        2.88353
             Al 42 -- Al 46                  0.22        2.88625
             Al 9  -- Al 10                  0.11        2.88680
             Al 43 -- Al 58                  0.21        2.89406
             Al 45 -- Al 59                  0.09        2.93171
             Al 12 -- Al 25                  0.08        2.97121
             Al 42 -- Al 44                  0.16        2.98250
======================================================================
 

Writing analysis data to castep.castep_bin

Writing model to castep.check
 
 A BibTeX formatted list of references used in this run has been written to 
 castep.bib
 
Initialisation time =     15.60 s
Calculation time    =  27060.44 s
Finalisation time   =      2.58 s
Total time          =  27078.63 s
Peak Memory Use     = 8261732 kB
  
Overall parallel efficiency rating: Good (77%)                                  
  
Data was distributed by:-
G-vector (48-way); efficiency rating: Good (78%)                                
