 +-------------------------------------------------+
 |                                                 |
 |      CCC   AA    SSS  TTTTT  EEEEE  PPPP        |
 |     C     A  A  S       T    E      P   P       |
 |     C     AAAA   SS     T    EEE    PPPP        |
 |     C     A  A     S    T    E      P           |
 |      CCC  A  A  SSS     T    EEEEE  P           |
 |                                                 |
 +-------------------------------------------------+
 |                                                 |
 | Welcome to Academic Release CASTEP version 22.11|
 | Ab Initio Total Energy Program                  |
 |                                                 |
 | Authors:                                        |
 | M. Segall, M. Probert, C. Pickard, P. Hasnip,   |
 | S. Clark, K. Refson, J. R. Yates, M. Payne      |
 |                                                 |
 | Contributors:                                   |
 | P. Lindan, P. Haynes, J. White, V. Milman,      |
 | N. Govind, M. Gibson, P. Tulip, V. Cocula,      |
 | B. Montanari, D. Quigley, M. Glover,            |
 | L. Bernasconi, A. Perlov, M. Plummer,           |
 | E. McNellis, J. Meyer, J. Gale, D. Jochym       |
 | J. Aarons, B. Walker, R. Gillen, D. Jones       |
 | T. Green, I. J. Bush, C. J. Armstrong,          |
 | E. J. Higgins, E. L. Brown, M. S. McFly,        |
 | J. Wilkins, B-C. Shih, P. J. P. Byrne,          |
 | R. J. Maurer, J. C. Womack, J. Dziedzic,        |
 | A. Bartok-Partay, L. LeBlanc, T. K. Stenczel,   |
 | J. Kermode, S. Sturniolo, B. Shi, B. Durham     |
 | M. Evans, M. J. Smith                           |
 |                                                 |
 | Copyright (c) 2000 - 2021                       |
 |                                                 |
 |     Distributed under license from Cambridge    |
 |     Enterprise for academic use only.           |
 |                                                 |
 | Please cite                                     |
 |                                                 |
 |     "First principles methods using CASTEP"     |
 |                                                 |
 |         Zeitschrift fuer Kristallographie       |
 |           220(5-6) pp. 567-570 (2005)           |
 |                                                 |
 | S. J. Clark, M. D. Segall, C. J. Pickard,       |
 | P. J. Hasnip, M. J. Probert, K. Refson,         |
 | M. C. Payne                                     |
 |                                                 |
 |       in all publications arising from          |
 |              your use of CASTEP                 |
 |                                                 |
 +-------------------------------------------------+
 |                                                 |
 |              http://www.castep.org              |
 |                                                 |
 +-------------------------------------------------+
 
 
 
 Compiled for linux_x86_64_ifort on Wed, 18 Jan 2023 15:42:19 +0000
 from code version b807d1bba+  Castep221_branch  Wed Sep 14 11:18:35 2022 +0100
 Compiler: Intel Fortran 19.0.5.281; Optimisation: fast
 MATHLIBS: Intel MKL(2019.0.5) (LAPACK version 3.7.0)
 FFT Lib : mkl
 Fundamental constants values: CODATA 2014
 
 Run started: Wed, 26 Apr 2023 16:48:14 +0100
 
 Atomic calculation performed for Al: 1s2 2s2 2p6 3s2 3p1
 
 Converged in 52 iterations to an ae energy of -6606.982 eV
 
   ============================================================                
   | Pseudopotential Report - Date of generation 26-04-2023   |                
   ------------------------------------------------------------                
   | Element: Al Ionic charge:  3.00 Level of theory: RPBE    |                
   | Atomic Solver: Koelling-Harmon                           |                
   |                                                          |                
   |               Reference Electronic Structure             |                
   |         Orbital         Occupation         Energy        |                
   |            3s              2.000           -0.284        |                
   |            3p              1.000           -0.100        |                
   |                                                          |                
   |                 Pseudopotential Definition               |                
   |        Beta     l      e      Rc     scheme   norm       |                
   |          1      0   -0.284   2.192     qc      0         |                
   |          2      0    0.250   2.192     qc      0         |                
   |          3      1   -0.100   2.192     qc      0         |                
   |          4      1    0.250   2.192     qc      0         |                
   |          5      2    0.000   2.000     qc      0         |                
   |          6      2    0.250   2.000     qc      0         |                
   |         loc     3    0.000   2.192     pn      0         |                
   |                                                          |                
   | Augmentation charge Rinner = 1.398                       |                
   | Partial core correction Rc = 1.398                       |                
   ------------------------------------------------------------                
   | "3|2.2|2.2|1.4|4|5|5|30:31:32U2U2"                       |                
   ------------------------------------------------------------                
   |      Author: Chris J. Pickard, Cambridge University      |                
   ============================================================                
 
 Atomic calculation performed for Ni: 1s2 2s2 2p6 3s2 3p6 3d8 4s2
 
 Converged in 109 iterations to an ae energy of -41381.414 eV
 
   ============================================================                
   | Pseudopotential Report - Date of generation 26-04-2023   |                
   ------------------------------------------------------------                
   | Element: Ni Ionic charge: 10.00 Level of theory: RPBE    |                
   | Atomic Solver: Koelling-Harmon                           |                
   |                                                          |                
   |               Reference Electronic Structure             |                
   |         Orbital         Occupation         Energy        |                
   |            3d              8.000           -0.324        |                
   |            4s              2.000           -0.204        |                
   |                                                          |                
   |                 Pseudopotential Definition               |                
   |        Beta     l      e      Rc     scheme   norm       |                
   |          1      0   -0.204   2.401     qc      0         |                
   |          2      0    0.250   2.401     qc      0         |                
   |          3      1    0.000   2.401     qc      0         |                
   |          4      1    0.250   2.401     qc      0         |                
   |          5      2   -0.324   1.999     qc      0         |                
   |          6      2    0.250   1.999     qc      0         |                
   |         loc     3    0.000   2.401     pn      0         |                
   |                                                          |                
   | Augmentation charge Rinner = 1.001                       |                
   | Partial core correction Rc = 1.001                       |                
   ------------------------------------------------------------                
   | "3|2.4|2.4|1.0|8|9|10|40:41:32U2U2(qc=5.5)"              |                
   ------------------------------------------------------------                
   |      Author: Chris J. Pickard, Cambridge University      |                
   ============================================================                
 
 Pseudo atomic calculation performed for Al 3s2 3p1
 
 Converged in 13 iterations to a total energy of -107.6593 eV
 
 Pseudo atomic calculation performed for Ni 3d8 4s2
 
 Converged in 41 iterations to a total energy of -1369.7890 eV
 Calculation parallelised over 128 processes.
 Data is distributed by G-vector(128-way)

 ************************************ Title ************************************
 

 ***************************** General Parameters ******************************
  
 output verbosity                               : normal  (1)
 write checkpoint data to                       : castep.check
 type of calculation                            : geometry optimization
 stress calculation                             : off
 density difference calculation                 : off
 electron localisation func (ELF) calculation   : off
 Hirshfeld analysis                             : off
 polarisation (Berry phase) analysis            : off
 molecular orbital projected DOS                : off
 deltaSCF calculation                           : off
 unlimited duration calculation
 timing information                             : on
 memory usage estimate                          : on
 write extra output files                       : on
 write final potential to formatted file        : off
 write final density to formatted file          : off
 write BibTeX reference list                    : on
 write OTFG pseudopotential files               : on
 write electrostatic potential file             : on
 write bands file                               : on
 checkpoint writing                             : both castep_bin and check files
  
 output         length unit                     : A
 output           mass unit                     : amu
 output           time unit                     : ps
 output         charge unit                     : e
 output           spin unit                     : hbar/2
 output         energy unit                     : eV
 output          force unit                     : eV/A
 output       velocity unit                     : A/ps
 output       pressure unit                     : GPa
 output     inv_length unit                     : 1/A
 output      frequency unit                     : cm-1
 output force constant unit                     : eV/A**2
 output         volume unit                     : A**3
 output   IR intensity unit                     : (D/A)**2/amu
 output         dipole unit                     : D
 output         efield unit                     : eV/A/e
 output        entropy unit                     : J/mol/K
 output    efield chi2 unit                     : pm/V
  
 wavefunctions paging                           : none
 random number generator seed                   : randomised (164816013)
 data distribution                              : optimal for this architecture
 optimization strategy                          : maximize speed(+++)

 *********************** Exchange-Correlation Parameters ***********************
  
 using functional                               : revised Perdew Burke Ernzerhof
 relativistic treatment                         : Koelling-Harmon
 DFT+D: Semi-empirical dispersion correction    : off

 ************************* Pseudopotential Parameters **************************
  
 pseudopotential representation                 : reciprocal space
 <beta|phi> representation                      : reciprocal space
 spin-orbit coupling                            : off

 **************************** Basis Set Parameters *****************************
  
 plane wave basis set cut-off                   :   900.0000   eV
 size of standard grid                          :     1.7500
 size of   fine   gmax                          :    26.8966   1/A
 finite basis set correction                    : none

 **************************** Electronic Parameters ****************************
  
 number of  electrons                           :  2109.    
 net charge of system                           :  0.000    
 net spin   of system                           :  1.000    
 number of  up  spins                           :  1055.    
 number of down spins                           :  1054.    
 treating system as spin-polarized
 number of bands                                :       1167

 ********************* Electronic Minimization Parameters **********************
  
 Method: Treating system as metallic with density mixing treatment of electrons,
         and number of  SD  steps               :          1
         and number of  CG  steps               :          4
  
 total energy / atom convergence tol.           : 0.1000E-05   eV
 eigen-energy convergence tolerance             : 0.2185E-06   eV
 max force / atom convergence tol.              : ignored
 convergence tolerance window                   :          3   cycles
 max. number of SCF cycles                      :        200
 number of fixed-spin iterations                :         10
 smearing scheme                                : Gaussian
 smearing width                                 : 0.2000       eV
 Fermi energy convergence tolerance             : 0.2721E-13   eV
 periodic dipole correction                     : NONE
 periodically dump wavefunctions to             : castep.wvfn
 dump wavefunctions every                       :          1   SCF cycles

 ************************** Density Mixing Parameters **************************
  
 density-mixing scheme                          : Pulay
 max. length of mixing history                  :         20
 charge density mixing amplitude                : 0.8000    
   spin density mixing amplitude                :  2.000    
 cut-off energy for mixing                      :  900.0       eV

 *********************** Population Analysis Parameters ************************
  
 Population analysis with cutoff                :  3.000       A
 Population analysis output                     : summary and pdos components

 ********************** Geometry Optimization Parameters ***********************
  
 optimization method                            : LBFGS
 max. no. of LBFGS updates                      : unbounded
 variable cell method                           : fixed basis quality
 max. number of steps                           :         30
 estimated bulk modulus                         :  500.0       GPa
 estimated <frequency>                          :  1668.       cm-1
 geom line minimiser                            : on
 with line minimiser tolerance                  :     0.4000
  with spin fully able to relax for all steps
 total energy convergence tolerance             : 0.2000E-04   eV/atom
        max ionic |force| tolerance             : 0.5000E-01   eV/A
 max ionic |displacement| tolerance             : 0.1000E-02   A
   max |stress component| tolerance             : 0.1000       GPa
 convergence tolerance window                   :          2   steps
 backup results every                           :          5   steps
 write geom trajectory file                     : on

 *******************************************************************************
  
 
                           -------------------------------
                                      Unit Cell
                           -------------------------------
        Real Lattice(A)                      Reciprocal Lattice(1/A)
    14.4648280     0.0000000     0.0000000        0.434376773   0.000000000   0.000000000
     0.0000000    14.4648280     0.0000000        0.000000000   0.434376773   0.000000000
     0.0000000     0.0000000    14.4648280        0.000000000   0.000000000   0.434376773
 
                       Lattice parameters(A)       Cell Angles
                    a =     14.464828          alpha =   90.000000
                    b =     14.464828          beta  =   90.000000
                    c =     14.464828          gamma =   90.000000
 
                       Current cell volume =          3026.494030       A**3
                                   density =             4.285146   AMU/A**3
                                           =             7.115653     g/cm^3
 
                           -------------------------------
                                     Cell Contents
                           -------------------------------
                         Total number of ions in cell =  255
                      Total number of species in cell =    2
                        Max number of any one species =  192
 
            xxxxxxxxxxxxxxxxxxxxxxxxxxxxxxxxxxxxxxxxxxxxxxxxxxxxxxxxxxxx
            x  Element    Atom        Fractional coordinates of atoms  x
            x            Number           u          v          w      x
            x----------------------------------------------------------x
            x  Al           1         0.570801   0.307705   0.064781   x 
            x  Al           2         0.818723   0.308884   0.063433   x 
            x  Al           3         0.570372   0.559663   0.065931   x 
            x  Al           4         0.818245   0.558894   0.063748   x 
            x  Al           5         0.574891   0.809790   0.060942   x 
            x  Al           6         0.818900   0.808467   0.063179   x 
            x  Al           7         0.571730   0.058460   0.064346   x 
            x  Al           8         0.819549   0.059034   0.062971   x 
            x  Al           9         0.569751   0.307458   0.312236   x 
            x  Al          10         0.818494   0.308560   0.313846   x 
            x  Al          11         0.574961   0.554869   0.310864   x 
            x  Al          12         0.817536   0.558658   0.313723   x 
            x  Al          13         0.576664   0.812691   0.314394   x 
            x  Al          14         0.818927   0.808678   0.314039   x 
            x  Al          15         0.573710   0.057953   0.310135   x 
            x  Al          16         0.819387   0.058988   0.313824   x 
            x  Al          17         0.571930   0.307668   0.562182   x 
            x  Al          18         0.817415   0.309714   0.563547   x 
            x  Al          19         0.569503   0.559993   0.561911   x 
            x  Al          20         0.816719   0.558566   0.563503   x 
            x  Al          21         0.574205   0.808282   0.566131   x 
            x  Al          22         0.818405   0.807786   0.564122   x 
            x  Al          23         0.576693   0.058321   0.569169   x 
            x  Al          24         0.819153   0.058941   0.564189   x 
            x  Al          25         0.571929   0.308871   0.814975   x 
            x  Al          26         0.817762   0.309845   0.813905   x 
            x  Al          27         0.569483   0.559179   0.815731   x 
            x  Al          28         0.817377   0.558560   0.813772   x 
            x  Al          29         0.570430   0.808606   0.814266   x 
            x  Al          30         0.819042   0.807804   0.813770   x 
            x  Al          31         0.572095   0.058354   0.812914   x 
            x  Al          32         0.819628   0.059119   0.814132   x 
            x  Al          33         0.328794   0.182197   0.935150   x 
            x  Al          34         0.056407   0.057791   0.808123   x 
            x  Al          35         0.192924   0.189997   0.805618   x 
            x  Al          36         0.321898   0.935657   0.939938   x 
            x  Al          37         0.193096   0.929978   0.805050   x 
            x  Al          38         0.318428   0.690708   0.944546   x 
            x  Al          39         0.074287   0.688627   0.929898   x 
            x  Al          40         0.198679   0.189353   0.572531   x 
            x  Al          41         0.067290   0.805738   0.566050   x 
            x  Al          42         0.325815   0.684621   0.689446   x 
            x  Al          43         0.193572   0.667672   0.564121   x 
            x  Al          44         0.331194   0.428502   0.686119   x 
            x  Al          45         0.327880   0.555790   0.821293   x 
            x  Al          46         0.191099   0.433180   0.557314   x 
            x  Al          47         0.063164   0.435523   0.689422   x 
            x  Al          48         0.317822   0.060934   0.312942   x 
            x  Al          49         0.440215   0.057899   0.445570   x 
            x  Al          50         0.186439   0.054837   0.186312   x 
            x  Al          51         0.068701   0.185717   0.441855   x 
            x  Al          52         0.433247   0.812922   0.440168   x 
            x  Al          53         0.071451   0.945163   0.442625   x 
            x  Al          54         0.202033   0.807574   0.432520   x 
            x  Al          55         0.432276   0.671390   0.314572   x 
            x  Al          56         0.332910   0.437213   0.436081   x 
            x  Al          57         0.186570   0.425629   0.312340   x 
            x  Al          58         0.187092   0.186024   0.058216   x 
            x  Al          59         0.434480   0.814789   0.187551   x 
            x  Al          60         0.191969   0.811580   0.188518   x 
            x  Al          61         0.190782   0.426325   0.055454   x 
            x  Al          62         0.192140   0.427537   0.823088   x 
            x  Al          63         0.187535   0.565864   0.183385   x 
            x  Ni           1         0.568727   0.431954   0.187290   x 
            x  Ni           2         0.694709   0.307921   0.188401   x 
            x  Ni           3         0.694349   0.433643   0.064185   x 
            x  Ni           4         0.818446   0.433773   0.188551   x 
            x  Ni           5         0.942653   0.309181   0.188611   x 
            x  Ni           6         0.942630   0.434218   0.063478   x 
            x  Ni           7         0.564407   0.687709   0.191853   x 
            x  Ni           8         0.694004   0.559407   0.188085   x 
            x  Ni           9         0.693677   0.683782   0.064649   x 
            x  Ni          10         0.818889   0.683776   0.188693   x 
            x  Ni          11         0.942326   0.558870   0.188741   x 
            x  Ni          12         0.942774   0.683535   0.063425   x 
            x  Ni          13         0.568639   0.932218   0.187329   x 
            x  Ni          14         0.695397   0.809055   0.188125   x 
            x  Ni          15         0.695794   0.934391   0.062825   x 
            x  Ni          16         0.819691   0.933774   0.188240   x 
            x  Ni          17         0.942802   0.808466   0.188515   x 
            x  Ni          18         0.943160   0.933445   0.063144   x 
            x  Ni          19         0.568722   0.183311   0.188243   x 
            x  Ni          20         0.695588   0.058407   0.187751   x 
            x  Ni          21         0.694635   0.183432   0.063398   x 
            x  Ni          22         0.819183   0.183753   0.188399   x 
            x  Ni          23         0.943117   0.058818   0.188418   x 
            x  Ni          24         0.943143   0.184228   0.063302   x 
            x  Ni          25         0.449237   0.434522   0.561060   x 
            x  Ni          26         0.692086   0.308502   0.437793   x 
            x  Ni          27         0.694438   0.432073   0.313109   x 
            x  Ni          28         0.817429   0.433843   0.438784   x 
            x  Ni          29         0.942421   0.309379   0.439033   x 
            x  Ni          30         0.942008   0.434164   0.313879   x 
            x  Ni          31         0.561696   0.683241   0.434104   x 
            x  Ni          32         0.692308   0.559129   0.438078   x 
            x  Ni          33         0.694147   0.684024   0.313490   x 
            x  Ni          34         0.818135   0.683432   0.438842   x 
            x  Ni          35         0.942028   0.558792   0.438915   x 
            x  Ni          36         0.942487   0.683550   0.313901   x 
            x  Ni          37         0.567545   0.934732   0.440795   x 
            x  Ni          38         0.693686   0.808433   0.439505   x 
            x  Ni          39         0.696391   0.934630   0.313883   x 
            x  Ni          40         0.819350   0.933498   0.439291   x 
            x  Ni          41         0.942765   0.808301   0.439146   x 
            x  Ni          42         0.942902   0.933543   0.313846   x 
            x  Ni          43         0.568293   0.180106   0.438577   x 
            x  Ni          44         0.694545   0.058218   0.439121   x 
            x  Ni          45         0.694681   0.183476   0.313470   x 
            x  Ni          46         0.818627   0.184096   0.438759   x 
            x  Ni          47         0.943051   0.058860   0.439166   x 
            x  Ni          48         0.942861   0.184047   0.313808   x 
            x  Ni          49         0.568433   0.434138   0.688674   x 
            x  Ni          50         0.693533   0.309612   0.688902   x 
            x  Ni          51         0.691858   0.433993   0.562728   x 
            x  Ni          52         0.817136   0.434482   0.688560   x 
            x  Ni          53         0.942474   0.309872   0.688693   x 
            x  Ni          54         0.942141   0.434395   0.563843   x 
            x  Ni          55         0.567375   0.683762   0.689945   x 
            x  Ni          56         0.691872   0.558837   0.688593   x 
            x  Ni          57         0.692616   0.683160   0.562913   x 
            x  Ni          58         0.817788   0.682733   0.688647   x 
            x  Ni          59         0.942251   0.558746   0.688618   x 
            x  Ni          60         0.942388   0.683207   0.563939   x 
            x  Ni          61         0.570048   0.932797   0.690269   x 
            x  Ni          62         0.694892   0.807757   0.690001   x 
            x  Ni          63         0.696228   0.933165   0.564782   x 
            x  Ni          64         0.819626   0.933095   0.689406   x 
            x  Ni          65         0.942865   0.807918   0.688791   x 
            x  Ni          66         0.942972   0.933357   0.564185   x 
            x  Ni          67         0.570798   0.183772   0.689438   x 
            x  Ni          68         0.696905   0.058708   0.690459   x 
            x  Ni          69         0.695575   0.184245   0.563827   x 
            x  Ni          70         0.818956   0.184883   0.689224   x 
            x  Ni          71         0.943059   0.058973   0.688886   x 
            x  Ni          72         0.942501   0.184470   0.563984   x 
            x  Ni          73         0.568485   0.434053   0.941674   x 
            x  Ni          74         0.693665   0.308788   0.939522   x 
            x  Ni          75         0.692560   0.434552   0.814482   x 
            x  Ni          76         0.817980   0.434175   0.938765   x 
            x  Ni          77         0.942885   0.309574   0.938313   x 
            x  Ni          78         0.942385   0.434399   0.813484   x 
            x  Ni          79         0.568305   0.684687   0.939525   x 
            x  Ni          80         0.693099   0.558998   0.939887   x 
            x  Ni          81         0.693434   0.683018   0.814150   x 
            x  Ni          82         0.818284   0.683138   0.938783   x 
            x  Ni          83         0.942604   0.558816   0.938488   x 
            x  Ni          84         0.942633   0.683107   0.813559   x 
            x  Ni          85         0.569149   0.934451   0.937794   x 
            x  Ni          86         0.695320   0.808652   0.937843   x 
            x  Ni          87         0.695396   0.933359   0.814097   x 
            x  Ni          88         0.819566   0.933769   0.938223   x 
            x  Ni          89         0.942925   0.808174   0.938377   x 
            x  Ni          90         0.943478   0.933354   0.813607   x 
            x  Ni          91         0.568539   0.182465   0.939049   x 
            x  Ni          92         0.694734   0.058916   0.938314   x 
            x  Ni          93         0.694684   0.184245   0.814451   x 
            x  Ni          94         0.819092   0.184299   0.938532   x 
            x  Ni          95         0.943593   0.058948   0.938251   x 
            x  Ni          96         0.943157   0.184678   0.813567   x 
            x  Ni          97         0.070418   0.431013   0.183705   x 
            x  Ni          98         0.191228   0.306168   0.184888   x 
            x  Ni          99         0.064026   0.305305   0.059242   x 
            x  Ni         100         0.311443   0.432534   0.184316   x 
            x  Ni         101         0.442718   0.307375   0.189028   x 
            x  Ni         102         0.316674   0.558484   0.062085   x 
            x  Ni         103         0.319898   0.304481   0.062037   x 
            x  Ni         104         0.064691   0.561449   0.056644   x 
            x  Ni         105         0.064812   0.688110   0.187089   x 
            x  Ni         106         0.315066   0.684614   0.184341   x 
            x  Ni         107         0.442253   0.558652   0.186223   x 
            x  Ni         108         0.444640   0.687041   0.066067   x 
            x  Ni         109         0.189806   0.687489   0.061382   x 
            x  Ni         110         0.066231   0.934622   0.186838   x 
            x  Ni         111         0.316937   0.813188   0.063526   x 
            x  Ni         112         0.190374   0.936664   0.058904   x 
            x  Ni         113         0.314316   0.938363   0.186634   x 
            x  Ni         114         0.318817   0.809521   0.311087   x 
            x  Ni         115         0.444901   0.935555   0.063666   x 
            x  Ni         116         0.065561   0.180921   0.184970   x 
            x  Ni         117         0.316054   0.061713   0.061003   x 
            x  Ni         118         0.066843   0.058308   0.056883   x 
            x  Ni         119         0.314753   0.180790   0.186786   x 
            x  Ni         120         0.443211   0.057514   0.188945   x 
            x  Ni         121         0.445028   0.182364   0.064642   x 
            x  Ni         122         0.193365   0.061027   0.929151   x 
            x  Ni         123         0.064699   0.430988   0.438245   x 
            x  Ni         124         0.194692   0.308817   0.439009   x 
            x  Ni         125         0.063437   0.304388   0.312269   x 
            x  Ni         126         0.447210   0.306874   0.435978   x 
            x  Ni         127         0.443873   0.436559   0.309690   x 
            x  Ni         128         0.319848   0.308839   0.312275   x 
            x  Ni         129         0.071343   0.683810   0.440744   x 
            x  Ni         130         0.192848   0.552549   0.434471   x 
            x  Ni         131         0.191537   0.683207   0.311632   x 
            x  Ni         132         0.066306   0.558275   0.311546   x 
            x  Ni         133         0.317735   0.676315   0.439104   x 
            x  Ni         134         0.565186   0.435680   0.436221   x 
            x  Ni         135         0.312106   0.552860   0.307872   x 
            x  Ni         136         0.067440   0.060890   0.314368   x 
            x  Ni         137         0.070207   0.814058   0.317402   x 
            x  Ni         138         0.315354   0.937492   0.440600   x 
            x  Ni         139         0.443897   0.935984   0.315143   x 
            x  Ni         140         0.191836   0.937361   0.314235   x 
            x  Ni         141         0.195295   0.064411   0.441648   x 
            x  Ni         142         0.191400   0.185026   0.311946   x 
            x  Ni         143         0.318294   0.184780   0.439856   x 
            x  Ni         144         0.443447   0.180428   0.313745   x 
            x  Ni         145         0.064928   0.309736   0.565029   x 
            x  Ni         146         0.450215   0.307428   0.687701   x 
            x  Ni         147         0.323136   0.311843   0.561493   x 
            x  Ni         148         0.066573   0.678996   0.689426   x 
            x  Ni         149         0.063958   0.556142   0.564970   x 
            x  Ni         150         0.198821   0.548457   0.692990   x 
            x  Ni         151         0.446470   0.559170   0.689462   x 
            x  Ni         152         0.444732   0.682752   0.560202   x 
            x  Ni         153         0.323253   0.554015   0.564124   x 
            x  Ni         154         0.065371   0.932127   0.686493   x 
            x  Ni         155         0.193457   0.802703   0.684800   x 
            x  Ni         156         0.192047   0.933112   0.565445   x 
            x  Ni         157         0.318562   0.931912   0.688390   x 
            x  Ni         158         0.445765   0.808807   0.686413   x 
            x  Ni         159         0.444157   0.933274   0.565177   x 
            x  Ni         160         0.316050   0.805171   0.563889   x 
            x  Ni         161         0.065486   0.186356   0.687097   x 
            x  Ni         162         0.191779   0.059732   0.691129   x 
            x  Ni         163         0.068851   0.062719   0.566258   x 
            x  Ni         164         0.321068   0.187375   0.690144   x 
            x  Ni         165         0.446261   0.058329   0.687115   x 
            x  Ni         166         0.445364   0.183428   0.564374   x 
            x  Ni         167         0.318308   0.060352   0.567918   x 
            x  Ni         168         0.065404   0.431502   0.935652   x 
            x  Ni         169         0.194407   0.302489   0.935903   x 
            x  Ni         170         0.194262   0.317994   0.688195   x 
            x  Ni         171         0.063296   0.308699   0.809438   x 
            x  Ni         172         0.320226   0.431676   0.939957   x 
            x  Ni         173         0.447849   0.307904   0.940144   x 
            x  Ni         174         0.447649   0.432886   0.815937   x 
            x  Ni         175         0.323802   0.309561   0.813908   x 
            x  Ni         176         0.067084   0.811696   0.058945   x 
            x  Ni         177         0.193691   0.559152   0.938399   x 
            x  Ni         178         0.199441   0.680799   0.811152   x 
            x  Ni         179         0.065672   0.557889   0.813276   x 
            x  Ni         180         0.442605   0.432231   0.065900   x 
            x  Ni         181         0.443731   0.684729   0.816585   x 
            x  Ni         182         0.445478   0.560264   0.944240   x 
            x  Ni         183         0.068309   0.932840   0.930860   x 
            x  Ni         184         0.194999   0.812244   0.935019   x 
            x  Ni         185         0.066674   0.807828   0.808232   x 
            x  Ni         186         0.445046   0.810945   0.940724   x 
            x  Ni         187         0.444802   0.934103   0.812652   x 
            x  Ni         188         0.321393   0.809660   0.813226   x 
            x  Ni         189         0.066272   0.182619   0.931117   x 
            x  Ni         190         0.320624   0.058348   0.811228   x 
            x  Ni         191         0.446353   0.057564   0.938424   x 
            x  Ni         192         0.447076   0.182893   0.812161   x 
            xxxxxxxxxxxxxxxxxxxxxxxxxxxxxxxxxxxxxxxxxxxxxxxxxxxxxxxxxxxx
 
 
                         No user defined ionic velocities
 
                           -------------------------------
                                   Details of Species
                           -------------------------------
 
                               Mass of species in AMU
                                    Al   26.9815400
                                    Ni   58.6934000
 
                          Electric Quadrupole Moment (Barn)
                                    Al    0.1466000 Isotope 27
                                    Ni    0.1620000 Isotope 61
 
                          Files used for pseudopotentials:
                                    Al 3|2.2|2.2|1.4|4|5|5|30:31:32U2U2
                                    Ni 3|2.4|2.4|1.0|8|9|10|40:41:32U2U2(qc=5.5)
 
                           -------------------------------
                              k-Points For BZ Sampling
                           -------------------------------
                       MP grid size for SCF calculation is  1  1  1
                            with an offset of   0.000  0.000  0.000
                       Number of kpoints used =             1
 
                           -------------------------------
                               Symmetry and Constraints
                           -------------------------------
 
                      Maximum deviation from symmetry =  0.00000         ANG
 
                      Number of symmetry operations   =           1
                      Number of ionic constraints     =           3
                      Point group of crystal =     1: C1, 1, 1
                      Space group of crystal =     1: P1, P 1
 
             Set iprint > 1 for details on symmetry rotations/translations
 
                         Centre of mass is constrained
             Set iprint > 1 for details of linear ionic constraints
 
                         Number of cell constraints= 6
                         Cell constraints are:  0 0 0 0 0 0
 
                         External pressure/stress (GPa)
                          0.00000   0.00000   0.00000
                                    0.00000   0.00000
                                              0.00000
 
+---------------- MEMORY AND SCRATCH DISK ESTIMATES PER PROCESS --------------+
|                                                     Memory          Disk    |
| Baseline code, static data and system overhead      855.0 MB         0.0 MB |
| BLAS internal memory storage                          0.0 MB         0.0 MB |
| Model and support data                              349.7 MB         0.0 MB |
| Electronic energy minimisation requirements          97.8 MB         0.0 MB |
| Force calculation requirements                        2.3 MB         0.0 MB |
|                                               ----------------------------- |
| Approx. total storage required per process         1302.5 MB         0.0 MB |
|                                                                             |
| Requirements will fluctuate during execution and may exceed these estimates |
+-----------------------------------------------------------------------------+
Calculating approximate eigenstates for fixed initial Hamiltonian
Cut-off for approx. calculation is  550.359 eV
Resetting cut-off to  900.000 eV
Calculating total energy with cut-off of  900.000 eV.
------------------------------------------------------------------------ <-- SCF
SCF loop      Energy           Fermi           Energy gain       Timer   <-- SCF
                               energy          per atom          (sec)   <-- SCF
------------------------------------------------------------------------ <-- SCF
Initial  -2.71890848E+005  0.00000000E+000                      1477.17  <-- SCF
      1  -2.71335507E+005  3.13478919E+000  -2.17780924E+000    1542.11  <-- SCF
      2  -2.71491566E+005  3.16512733E+000   6.11994912E-001    1610.29  <-- SCF
      3  -2.72645616E+005  8.86945087E+000   4.52568693E+000    1684.91  <-- SCF
      4  -2.72703087E+005  8.88325294E+000   2.25378112E-001    1755.32  <-- SCF
      5  -2.71610903E+005  6.41256615E+000  -4.28307610E+000    1848.75  <-- SCF
      6  -2.71757950E+005  6.39946047E+000   5.76654421E-001    1924.71  <-- SCF
      7  -2.71449020E+005  4.83887769E+000  -1.21149117E+000    2004.46  <-- SCF
      8  -2.71395155E+005  4.44241290E+000  -2.11233341E-001    2077.93  <-- SCF
      9  -2.71388416E+005  4.40997234E+000  -2.64272978E-002    2144.94  <-- SCF
     10  -2.71392281E+005  4.46044779E+000   1.51567962E-002    2212.59  <-- SCF
     11  -2.72037636E+005  5.88896685E+000   2.53080195E+000    2287.55  <-- SCF
     12  -2.71568981E+005  4.74592324E+000  -1.83786314E+000    2385.95  <-- SCF
     13  -2.71449614E+005  4.24700882E+000  -4.68105615E-001    2460.45  <-- SCF
     14  -2.71409585E+005  4.22398397E+000  -1.56974056E-001    2529.03  <-- SCF
     15  -2.71400541E+005  4.31076863E+000  -3.54669742E-002    2595.30  <-- SCF
     16  -2.71395416E+005  4.34122383E+000  -2.00969662E-002    2670.65  <-- SCF
     17  -2.71391630E+005  4.34594083E+000  -1.48493241E-002    2741.22  <-- SCF
     18  -2.71389186E+005  4.34223067E+000  -9.58451328E-003    2814.23  <-- SCF
     19  -2.71387213E+005  4.33904369E+000  -7.73618374E-003    2881.55  <-- SCF
     20  -2.71386241E+005  4.35250904E+000  -3.81256573E-003    2948.86  <-- SCF
     21  -2.71385557E+005  4.36504297E+000  -2.68185735E-003    3017.64  <-- SCF
     22  -2.71385323E+005  4.38137995E+000  -9.18351404E-004    3084.16  <-- SCF
     23  -2.71385171E+005  4.39236262E+000  -5.96167018E-004    3150.19  <-- SCF
     24  -2.71385011E+005  4.38934359E+000  -6.26413911E-004    3219.44  <-- SCF
     25  -2.71384977E+005  4.37523775E+000  -1.34119453E-004    3288.37  <-- SCF
     26  -2.71384973E+005  4.37336100E+000  -1.40460012E-005    3353.39  <-- SCF
     27  -2.71384944E+005  4.37783516E+000  -1.16575067E-004    3419.96  <-- SCF
     28  -2.71384940E+005  4.37911815E+000  -1.24665278E-005    3493.66  <-- SCF
     29  -2.71384949E+005  4.38052330E+000   3.25466572E-005    3565.69  <-- SCF
     30  -2.71384937E+005  4.38085661E+000  -4.45970645E-005    3629.77  <-- SCF
     31  -2.71384937E+005  4.38057968E+000  -2.58051947E-006    3689.24  <-- SCF
     32  -2.71384937E+005  4.38002071E+000   8.50121402E-007    3745.75  <-- SCF
     33  -2.71384936E+005  4.37988852E+000  -1.73071407E-006    3793.56  <-- SCF
     34  -2.71384936E+005  4.38010914E+000  -1.01244415E-006    3845.52  <-- SCF
     35  -2.71384936E+005  4.38027092E+000  -4.86578664E-007    3899.35  <-- SCF
     36  -2.71384936E+005  4.38024782E+000   2.46028372E-008    3958.87  <-- SCF
------------------------------------------------------------------------ <-- SCF
 
Integrated Spin Density     =    0.556936E-01 hbar/2
Integrated |Spin Density|   =    0.110096     hbar/2
 
Final energy, E             =  -271380.4166065     eV
Final free energy (E-TS)    =  -271384.9360541     eV
(energies not corrected for finite basis set)
 
NB est. 0K energy (E-0.5TS)      =  -271382.6763303     eV
 

Writing analysis data to castep.castep_bin

Writing model to castep.check
 
+---------------- MEMORY AND SCRATCH DISK ESTIMATES PER PROCESS --------------+
|                                                     Memory          Disk    |
| Model and support data                              360.0 MB         0.0 MB |
| Electronic energy minimisation requirements          97.8 MB         0.0 MB |
| Geometry minimisation requirements                  126.4 MB         0.0 MB |
|                                               ----------------------------- |
| Approx. total storage required per process          584.2 MB         0.0 MB |
|                                                                             |
| Requirements will fluctuate during execution and may exceed these estimates |
+-----------------------------------------------------------------------------+
 
 
 ************************************** Forces **************************************
 *                                                                                  *
 *                           Cartesian components (eV/A)                            *
 * -------------------------------------------------------------------------------- *
 *                         x                    y                    z              *
 *                                                                                  *
 * Al              1     -0.11503             -0.00374             -0.03343         *
 * Al              2      0.03746             -0.02578             -0.00498         *
 * Al              3     -0.10368             -0.02289             -0.01073         *
 * Al              4      0.07964             -0.00908              0.00155         *
 * Al              5     -0.08429              0.00296             -0.13434         *
 * Al              6      0.11695              0.02543              0.00427         *
 * Al              7     -0.15716              0.03338             -0.02860         *
 * Al              8      0.06848              0.01587             -0.02627         *
 * Al              9     -0.09611              0.02101              0.01533         *
 * Al             10      0.05642              0.01141             -0.02146         *
 * Al             11      0.02649             -0.13578              0.01689         *
 * Al             12      0.10941             -0.00007             -0.01417         *
 * Al             13      0.35428              0.09553             -0.00016         *
 * Al             14      0.05113             -0.03842             -0.03617         *
 * Al             15     -0.01176             -0.00465             -0.12686         *
 * Al             16      0.08055              0.02655             -0.02132         *
 * Al             17     -0.16518             -0.04489             -0.00301         *
 * Al             18      0.04549              0.02175             -0.00895         *
 * Al             19     -0.20143             -0.03062             -0.05237         *
 * Al             20      0.08898              0.00467             -0.00854         *
 * Al             21     -0.04322              0.03405              0.12757         *
 * Al             22      0.11839             -0.00347              0.00149         *
 * Al             23      0.02265              0.01453              0.13540         *
 * Al             24      0.02893             -0.00356             -0.01894         *
 * Al             25     -0.11872             -0.06011             -0.00752         *
 * Al             26     -0.00400             -0.01746              0.01188         *
 * Al             27     -0.11115              0.00429              0.02513         *
 * Al             28      0.06346              0.02267              0.00095         *
 * Al             29     -0.14918              0.05465              0.01460         *
 * Al             30      0.05381              0.00214              0.01782         *
 * Al             31     -0.18200              0.01588              0.02032         *
 * Al             32      0.09103             -0.02793              0.03361         *
 * Al             33      0.13143              0.09184              0.11966         *
 * Al             34      0.30802              0.15727              0.29419         *
 * Al             35     -0.02836             -0.00500             -0.07560         *
 * Al             36      0.15496              0.05307              0.21585         *
 * Al             37     -0.04995             -0.29441             -0.04509         *
 * Al             38      0.04662              0.07544              0.20118         *
 * Al             39     -0.53008             -0.29122              0.54574         *
 * Al             40      0.13197             -0.20476             -0.02853         *
 * Al             41     -0.74223             -0.02341              0.60391         *
 * Al             42      0.20953              0.28701             -0.08852         *
 * Al             43     -0.07897             -0.16397             -0.06277         *
 * Al             44      0.14404             -0.17500             -0.18141         *
 * Al             45     -0.05116              0.01689              0.17691         *
 * Al             46     -0.11461              0.10690             -0.18069         *
 * Al             47     -0.61188             -0.08090              0.02093         *
 * Al             48     -0.24478             -0.06628             -0.02699         *
 * Al             49      0.00911              0.18223              0.14249         *
 * Al             50     -0.30453              0.04508             -0.05080         *
 * Al             51     -0.51563             -0.11570             -0.66981         *
 * Al             52     -0.12875             -0.01824              0.18912         *
 * Al             53     -0.61043              0.00174             -0.65273         *
 * Al             54      0.13933             -0.10005             -0.17455         *
 * Al             55     -0.21743             -0.03353             -0.03376         *
 * Al             56      0.23887              0.12836             -0.13745         *
 * Al             57     -0.16052             -0.10296             -0.06552         *
 * Al             58     -0.08509              0.03394              0.13102         *
 * Al             59     -0.00800              0.09820             -0.29667         *
 * Al             60     -0.19019             -0.02907             -0.14220         *
 * Al             61      0.01096              0.03608              0.01129         *
 * Al             62     -0.15719             -0.00407              0.25940         *
 * Al             63     -0.02826              0.11909              0.00868         *
 * Ni              1     -0.00389              0.08258              0.01686         *
 * Ni              2      0.00749              0.00515              0.01299         *
 * Ni              3      0.02280              0.01545              0.00886         *
 * Ni              4      0.09503             -0.01458              0.00229         *
 * Ni              5      0.14703             -0.04995             -0.06010         *
 * Ni              6      0.10691              0.04477             -0.05939         *
 * Ni              7      0.13845              0.18725              0.32603         *
 * Ni              8      0.04287             -0.01100              0.00118         *
 * Ni              9      0.03437              0.00537             -0.01281         *
 * Ni             10     -0.00985              0.00362              0.03138         *
 * Ni             11      0.33479             -0.05344             -0.08380         *
 * Ni             12      0.17539              0.12332             -0.04243         *
 * Ni             13      0.10550             -0.13977              0.16788         *
 * Ni             14     -0.05415             -0.01563              0.00579         *
 * Ni             15     -0.08387             -0.02527              0.03390         *
 * Ni             16     -0.01758              0.00294             -0.01248         *
 * Ni             17      0.14894              0.13644              0.01647         *
 * Ni             18      0.14023             -0.00127             -0.14221         *
 * Ni             19     -0.00040             -0.02026              0.08956         *
 * Ni             20      0.06058              0.00816              0.00552         *
 * Ni             21     -0.00576             -0.00012             -0.00780         *
 * Ni             22      0.02550              0.00190             -0.02085         *
 * Ni             23      0.20982             -0.01092             -0.03455         *
 * Ni             24      0.03924             -0.15447             -0.13377         *
 * Ni             25      0.16558             -0.08226              0.13403         *
 * Ni             26      0.14441              0.03262             -0.00016         *
 * Ni             27     -0.01512              0.03747             -0.00628         *
 * Ni             28      0.03447              0.02256             -0.05615         *
 * Ni             29      0.07265              0.05885             -0.00392         *
 * Ni             30      0.23788             -0.06716             -0.13380         *
 * Ni             31      0.19893              0.30325             -0.38667         *
 * Ni             32     -0.07575             -0.01798             -0.00110         *
 * Ni             33     -0.08934             -0.00027              0.00527         *
 * Ni             34     -0.03507             -0.06849             -0.01932         *
 * Ni             35      0.21179              0.00334             -0.01214         *
 * Ni             36      0.28965              0.10996              0.04954         *
 * Ni             37      0.21214             -0.04179             -0.06957         *
 * Ni             38      0.10049              0.01359              0.00892         *
 * Ni             39     -0.07148              0.00236              0.01631         *
 * Ni             40     -0.00150             -0.03635             -0.02483         *
 * Ni             41      0.38732              0.01277             -0.02503         *
 * Ni             42      0.26515              0.06687             -0.05075         *
 * Ni             43      0.10592             -0.13702              0.00437         *
 * Ni             44      0.09752             -0.00061             -0.00635         *
 * Ni             45     -0.03262             -0.01980              0.02486         *
 * Ni             46      0.00873              0.06834             -0.00839         *
 * Ni             47     -0.06105              0.14152              0.09957         *
 * Ni             48     -0.02426             -0.13041             -0.09891         *
 * Ni             49      0.11617             -0.03072             -0.00169         *
 * Ni             50      0.02803             -0.01774             -0.00254         *
 * Ni             51      0.00170              0.03565             -0.01923         *
 * Ni             52      0.07690             -0.01306              0.00184         *
 * Ni             53     -0.11148             -0.23128             -0.08774         *
 * Ni             54     -0.16909             -0.06781             -0.21289         *
 * Ni             55      0.10265              0.05359             -0.18632         *
 * Ni             56      0.05076              0.03043              0.00074         *
 * Ni             57     -0.05005             -0.01263             -0.00173         *
 * Ni             58     -0.01357              0.02799             -0.02941         *
 * Ni             59     -0.08869              0.21072              0.01271         *
 * Ni             60      0.10463             -0.12493             -0.04231         *
 * Ni             61      0.09453              0.05075             -0.15674         *
 * Ni             62      0.00048             -0.02596             -0.00066         *
 * Ni             63     -0.11163             -0.00584             -0.05192         *
 * Ni             64     -0.03167              0.01463              0.01419         *
 * Ni             65      0.01299             -0.09716              0.08969         *
 * Ni             66      0.15328              0.03149             -0.04364         *
 * Ni             67      0.09341             -0.06209             -0.12129         *
 * Ni             68      0.00513              0.00071             -0.00695         *
 * Ni             69     -0.03816             -0.02239             -0.02532         *
 * Ni             70     -0.00494             -0.03434             -0.00365         *
 * Ni             71     -0.22033              0.04201             -0.50068         *
 * Ni             72     -0.06555             -0.03652              0.10408         *
 * Ni             73      0.10674             -0.01036              0.04657         *
 * Ni             74      0.03323             -0.00181              0.00114         *
 * Ni             75      0.04102             -0.01350              0.00542         *
 * Ni             76     -0.01219             -0.02761              0.04372         *
 * Ni             77      0.03996             -0.08766             -0.12370         *
 * Ni             78     -0.18430              0.00965              0.19003         *
 * Ni             79      0.11762             -0.03872              0.13857         *
 * Ni             80      0.03320              0.03328              0.00611         *
 * Ni             81      0.00757              0.02467              0.00289         *
 * Ni             82     -0.00934             -0.00840             -0.00671         *
 * Ni             83      0.03395             -0.04217             -0.13058         *
 * Ni             84     -0.02985             -0.01827             -0.13955         *
 * Ni             85      0.13614             -0.01040              0.04351         *
 * Ni             86      0.00535             -0.00941             -0.01009         *
 * Ni             87     -0.01376             -0.01167             -0.00312         *
 * Ni             88     -0.05223              0.02754              0.01935         *
 * Ni             89      0.12666              0.13684             -0.15499         *
 * Ni             90     -0.23319             -0.34711             -0.13927         *
 * Ni             91      0.13840              0.05736             -0.00891         *
 * Ni             92      0.01366             -0.03078              0.01257         *
 * Ni             93     -0.00160             -0.00349             -0.02672         *
 * Ni             94      0.01381              0.01227              0.01558         *
 * Ni             95     -0.11169             -0.08477              0.09578         *
 * Ni             96     -0.36584              0.24858             -0.12933         *
 * Ni             97     -0.22484              0.34095              0.09795         *
 * Ni             98      0.01685             -0.16677              0.17173         *
 * Ni             99      0.06143              0.29167              0.15197         *
 * Ni            100      0.26679              0.06845              0.15878         *
 * Ni            101     -0.20794             -0.03540             -0.10682         *
 * Ni            102      0.05513             -0.10512              0.17763         *
 * Ni            103      0.08949              0.01947              0.05676         *
 * Ni            104      0.14711             -0.25902              0.48888         *
 * Ni            105     -0.02525             -0.17959              0.05162         *
 * Ni            106      0.32294             -0.08756              0.09109         *
 * Ni            107     -0.19248             -0.14720              0.13763         *
 * Ni            108     -0.06944              0.00493              0.00549         *
 * Ni            109      0.02272             -0.00216             -0.02700         *
 * Ni            110     -0.16870             -0.16171              0.14994         *
 * Ni            111     -0.21977             -0.04630             -0.06368         *
 * Ni            112      0.02849             -0.14373             -0.04368         *
 * Ni            113      0.26227              0.14638              0.06327         *
 * Ni            114     -0.02985             -0.03914              0.01962         *
 * Ni            115     -0.07072              0.00532              0.13724         *
 * Ni            116      0.10350              0.22672              0.17551         *
 * Ni            117      0.06911              0.02105              0.13532         *
 * Ni            118      0.11995              0.00046              0.13079         *
 * Ni            119      0.16119              0.07817              0.02747         *
 * Ni            120     -0.03066              0.04873             -0.26298         *
 * Ni            121     -0.12013             -0.06085              0.25337         *
 * Ni            122     -0.17173             -0.05432              0.13730         *
 * Ni            123     -0.06229              0.14150             -0.14235         *
 * Ni            124      0.04649             -0.05249             -0.02760         *
 * Ni            125      0.18993              0.28779             -0.09163         *
 * Ni            126     -0.22522             -0.06178              0.14923         *
 * Ni            127     -0.10826             -0.13815             -0.29384         *
 * Ni            128     -0.17349             -0.07206             -0.00937         *
 * Ni            129     -0.01324              0.17142             -0.10815         *
 * Ni            130      0.10889             -0.06806             -0.00373         *
 * Ni            131      0.06075             -0.02355              0.11054         *
 * Ni            132      0.12477             -0.03162              0.06127         *
 * Ni            133      0.02995              0.01104             -0.17160         *
 * Ni            134      0.19619             -0.06145             -0.08164         *
 * Ni            135     -0.23146              0.05826              0.06619         *
 * Ni            136     -0.18346              0.05644             -0.14128         *
 * Ni            137     -0.33658             -0.38696             -0.02820         *
 * Ni            138      0.12589              0.09258             -0.01419         *
 * Ni            139     -0.12858             -0.04834             -0.08941         *
 * Ni            140      0.12196             -0.02771             -0.00946         *
 * Ni            141     -0.14061              0.08444              0.20445         *
 * Ni            142      0.16809              0.01339             -0.11775         *
 * Ni            143      0.30835              0.16089             -0.24437         *
 * Ni            144     -0.08132             -0.04192              0.04935         *
 * Ni            145      0.18538              0.02138             -0.10430         *
 * Ni            146     -0.31408             -0.17216              0.16146         *
 * Ni            147      0.03730              0.03002              0.06035         *
 * Ni            148      0.25373              0.10767             -0.03880         *
 * Ni            149      0.23967             -0.05535             -0.25394         *
 * Ni            150     -0.02718             -0.10487              0.29421         *
 * Ni            151     -0.35958             -0.04422             -0.08023         *
 * Ni            152      0.05404              0.03463              0.05209         *
 * Ni            153     -0.07018              0.14142             -0.04443         *
 * Ni            154      0.17856              0.21973              0.02920         *
 * Ni            155     -0.00572             -0.11655              0.06878         *
 * Ni            156     -0.05556             -0.13325             -0.27976         *
 * Ni            157      0.25669              0.05680             -0.25631         *
 * Ni            158     -0.18148              0.14241              0.26618         *
 * Ni            159     -0.14366             -0.03629              0.11155         *
 * Ni            160     -0.24473              0.14135              0.22367         *
 * Ni            161     -0.02504              0.05712              0.11177         *
 * Ni            162     -0.00167             -0.13640              0.08783         *
 * Ni            163     -0.00263              0.05551              0.25068         *
 * Ni            164      0.29976             -0.11802             -0.07809         *
 * Ni            165     -0.32827              0.06056              0.16974         *
 * Ni            166     -0.09007             -0.01522             -0.01118         *
 * Ni            167     -0.06922             -0.15193              0.10161         *
 * Ni            168     -0.18351              0.16627              0.24048         *
 * Ni            169     -0.02826             -0.12576             -0.05268         *
 * Ni            170      0.04015              0.29810             -0.03025         *
 * Ni            171      0.29884              0.11664              0.31352         *
 * Ni            172      0.27067             -0.15074              0.00671         *
 * Ni            173     -0.27740              0.27219             -0.08176         *
 * Ni            174     -0.07358             -0.00685              0.10593         *
 * Ni            175      0.01432             -0.04828             -0.00509         *
 * Ni            176     -0.00188             -0.06260              0.21932         *
 * Ni            177      0.06562             -0.02018             -0.18585         *
 * Ni            178      0.08034              0.08442             -0.23977         *
 * Ni            179      0.33180             -0.08323              0.04568         *
 * Ni            180     -0.07280              0.02193             -0.13316         *
 * Ni            181     -0.11015             -0.07854              0.01990         *
 * Ni            182     -0.17963             -0.17077             -0.09833         *
 * Ni            183      0.03340              0.10591              0.34802         *
 * Ni            184     -0.14849              0.16114              0.00382         *
 * Ni            185      0.13224             -0.05094              0.00810         *
 * Ni            186     -0.00338             -0.09956             -0.14875         *
 * Ni            187     -0.07538             -0.10523             -0.17991         *
 * Ni            188      0.04701              0.18209             -0.06545         *
 * Ni            189     -0.06313              0.09515              0.27748         *
 * Ni            190      0.11873             -0.00852             -0.20402         *
 * Ni            191     -0.05161              0.04143             -0.11511         *
 * Ni            192      0.08563              0.04041             -0.17371         *
 *                                                                                  *
 ************************************************************************************
 LBFGS: finished iteration     0 with enthalpy= -2.71384936E+005 eV
  
 +-----------+-----------------+-----------------+------------+-----+ <-- LBFGS
 | Parameter |      value      |    tolerance    |    units   | OK? | <-- LBFGS
 +-----------+-----------------+-----------------+------------+-----+ <-- LBFGS
 |  dE/ion   |   0.000000E+000 |   2.000000E-005 |         eV | No  | <-- LBFGS
 |  |F|max   |   9.571660E-001 |   5.000000E-002 |       eV/A | No  | <-- LBFGS
 |  |dR|max  |   0.000000E+000 |   1.000000E-003 |          A | No  | <-- LBFGS
 +-----------+-----------------+-----------------+------------+-----+ <-- LBFGS
  

================================================================================
 Starting LBFGS iteration          1 ...
================================================================================
  
 +------------+-------------+-------------+-----------------+ <-- min LBFGS
 |    Step    |   lambda    |   F.delta'  |    enthalpy     | <-- min LBFGS
 +------------+-------------+-------------+-----------------+ <-- min LBFGS
 |  previous  |    0.000000 |    2.081863 |  -271384.936054 | <-- min LBFGS
 +------------+-------------+-------------+-----------------+ <-- min LBFGS
  

--------------------------------------------------------------------------------
 LBFGS: starting iteration         1 with trial guess (lambda=  1.000000)
--------------------------------------------------------------------------------
 
                           -------------------------------
                                     Cell Contents
                           -------------------------------
 
            xxxxxxxxxxxxxxxxxxxxxxxxxxxxxxxxxxxxxxxxxxxxxxxxxxxxxxxxxxxxxxxxx
            x  Element         Atom        Fractional coordinates of atoms  x
            x                 Number           u          v          w      x
            x---------------------------------------------------------------x
            x  Al                1         0.570786   0.307705   0.064777   x
            x  Al                2         0.818728   0.308881   0.063433   x
            x  Al                3         0.570359   0.559660   0.065929   x
            x  Al                4         0.818255   0.558893   0.063748   x
            x  Al                5         0.574880   0.809791   0.060924   x
            x  Al                6         0.818916   0.808471   0.063180   x
            x  Al                7         0.571709   0.058465   0.064342   x
            x  Al                8         0.819558   0.059036   0.062967   x
            x  Al                9         0.569738   0.307461   0.312238   x
            x  Al               10         0.818502   0.308562   0.313843   x
            x  Al               11         0.574964   0.554851   0.310867   x
            x  Al               12         0.817550   0.558658   0.313722   x
            x  Al               13         0.576711   0.812704   0.314393   x
            x  Al               14         0.818934   0.808673   0.314035   x
            x  Al               15         0.573708   0.057953   0.310118   x
            x  Al               16         0.819397   0.058992   0.313821   x
            x  Al               17         0.571908   0.307662   0.562182   x
            x  Al               18         0.817421   0.309717   0.563546   x
            x  Al               19         0.569476   0.559989   0.561904   x
            x  Al               20         0.816731   0.558566   0.563502   x
            x  Al               21         0.574199   0.808286   0.566148   x
            x  Al               22         0.818421   0.807785   0.564122   x
            x  Al               23         0.576696   0.058323   0.569187   x
            x  Al               24         0.819157   0.058941   0.564186   x
            x  Al               25         0.571913   0.308863   0.814974   x
            x  Al               26         0.817761   0.309843   0.813907   x
            x  Al               27         0.569468   0.559180   0.815735   x
            x  Al               28         0.817385   0.558563   0.813772   x
            x  Al               29         0.570410   0.808613   0.814267   x
            x  Al               30         0.819049   0.807804   0.813772   x
            x  Al               31         0.572071   0.058356   0.812916   x
            x  Al               32         0.819640   0.059116   0.814137   x
            x  Al               33         0.328812   0.182210   0.935166   x
            x  Al               34         0.056448   0.057812   0.808162   x
            x  Al               35         0.192920   0.189996   0.805608   x
            x  Al               36         0.321918   0.935664   0.939967   x
            x  Al               37         0.193089   0.929939   0.805044   x
            x  Al               38         0.318435   0.690718   0.944573   x
            x  Al               39         0.074217   0.688588   0.929971   x
            x  Al               40         0.198696   0.189326   0.572527   x
            x  Al               41         0.067192   0.805735   0.566130   x
            x  Al               42         0.325843   0.684659   0.689434   x
            x  Al               43         0.193561   0.667650   0.564113   x
            x  Al               44         0.331213   0.428479   0.686095   x
            x  Al               45         0.327874   0.555792   0.821316   x
            x  Al               46         0.191083   0.433194   0.557290   x
            x  Al               47         0.063083   0.435512   0.689425   x
            x  Al               48         0.317789   0.060925   0.312938   x
            x  Al               49         0.440216   0.057923   0.445589   x
            x  Al               50         0.186398   0.054843   0.186306   x
            x  Al               51         0.068633   0.185702   0.441766   x
            x  Al               52         0.433230   0.812920   0.440193   x
            x  Al               53         0.071370   0.945163   0.442539   x
            x  Al               54         0.202051   0.807561   0.432497   x
            x  Al               55         0.432247   0.671386   0.314567   x
            x  Al               56         0.332941   0.437230   0.436063   x
            x  Al               57         0.186548   0.425616   0.312331   x
            x  Al               58         0.187081   0.186029   0.058234   x
            x  Al               59         0.434478   0.814802   0.187511   x
            x  Al               60         0.191943   0.811576   0.188499   x
            x  Al               61         0.190784   0.426330   0.055455   x
            x  Al               62         0.192120   0.427536   0.823123   x
            x  Al               63         0.187531   0.565880   0.183386   x
            x  Ni                1         0.568726   0.431965   0.187293   x
            x  Ni                2         0.694710   0.307922   0.188403   x
            x  Ni                3         0.694352   0.433645   0.064187   x
            x  Ni                4         0.818459   0.433771   0.188551   x
            x  Ni                5         0.942672   0.309175   0.188603   x
            x  Ni                6         0.942644   0.434224   0.063470   x
            x  Ni                7         0.564425   0.687734   0.191896   x
            x  Ni                8         0.694009   0.559405   0.188085   x
            x  Ni                9         0.693681   0.683783   0.064647   x
            x  Ni               10         0.818888   0.683777   0.188698   x
            x  Ni               11         0.942370   0.558863   0.188730   x
            x  Ni               12         0.942797   0.683551   0.063419   x
            x  Ni               13         0.568653   0.932199   0.187351   x
            x  Ni               14         0.695390   0.809053   0.188125   x
            x  Ni               15         0.695783   0.934388   0.062830   x
            x  Ni               16         0.819689   0.933774   0.188239   x
            x  Ni               17         0.942822   0.808484   0.188517   x
            x  Ni               18         0.943178   0.933444   0.063125   x
            x  Ni               19         0.568722   0.183308   0.188255   x
            x  Ni               20         0.695596   0.058408   0.187752   x
            x  Ni               21         0.694634   0.183432   0.063397   x
            x  Ni               22         0.819187   0.183753   0.188396   x
            x  Ni               23         0.943145   0.058817   0.188413   x
            x  Ni               24         0.943148   0.184207   0.063284   x
            x  Ni               25         0.449259   0.434511   0.561078   x
            x  Ni               26         0.692106   0.308506   0.437793   x
            x  Ni               27         0.694436   0.432078   0.313108   x
            x  Ni               28         0.817434   0.433846   0.438776   x
            x  Ni               29         0.942431   0.309386   0.439032   x
            x  Ni               30         0.942039   0.434155   0.313862   x
            x  Ni               31         0.561723   0.683282   0.434052   x
            x  Ni               32         0.692297   0.559127   0.438078   x
            x  Ni               33         0.694135   0.684024   0.313491   x
            x  Ni               34         0.818131   0.683423   0.438839   x
            x  Ni               35         0.942056   0.558793   0.438913   x
            x  Ni               36         0.942525   0.683565   0.313908   x
            x  Ni               37         0.567573   0.934726   0.440785   x
            x  Ni               38         0.693699   0.808435   0.439506   x
            x  Ni               39         0.696381   0.934630   0.313885   x
            x  Ni               40         0.819350   0.933493   0.439288   x
            x  Ni               41         0.942817   0.808303   0.439143   x
            x  Ni               42         0.942937   0.933552   0.313840   x
            x  Ni               43         0.568307   0.180088   0.438577   x
            x  Ni               44         0.694558   0.058218   0.439120   x
            x  Ni               45         0.694676   0.183473   0.313473   x
            x  Ni               46         0.818628   0.184105   0.438758   x
            x  Ni               47         0.943043   0.058878   0.439179   x
            x  Ni               48         0.942857   0.184030   0.313795   x
            x  Ni               49         0.568448   0.434134   0.688673   x
            x  Ni               50         0.693536   0.309610   0.688902   x
            x  Ni               51         0.691859   0.433998   0.562726   x
            x  Ni               52         0.817147   0.434480   0.688560   x
            x  Ni               53         0.942459   0.309841   0.688682   x
            x  Ni               54         0.942118   0.434386   0.563815   x
            x  Ni               55         0.567388   0.683769   0.689920   x
            x  Ni               56         0.691879   0.558841   0.688593   x
            x  Ni               57         0.692610   0.683159   0.562913   x
            x  Ni               58         0.817786   0.682736   0.688643   x
            x  Ni               59         0.942239   0.558774   0.688620   x
            x  Ni               60         0.942402   0.683191   0.563933   x
            x  Ni               61         0.570061   0.932804   0.690248   x
            x  Ni               62         0.694892   0.807753   0.690000   x
            x  Ni               63         0.696213   0.933164   0.564775   x
            x  Ni               64         0.819622   0.933097   0.689408   x
            x  Ni               65         0.942866   0.807905   0.688803   x
            x  Ni               66         0.942993   0.933361   0.564179   x
            x  Ni               67         0.570810   0.183764   0.689422   x
            x  Ni               68         0.696906   0.058709   0.690458   x
            x  Ni               69         0.695570   0.184242   0.563824   x
            x  Ni               70         0.818955   0.184878   0.689223   x
            x  Ni               71         0.943030   0.058978   0.688819   x
            x  Ni               72         0.942492   0.184465   0.563998   x
            x  Ni               73         0.568499   0.434052   0.941681   x
            x  Ni               74         0.693670   0.308788   0.939522   x
            x  Ni               75         0.692565   0.434550   0.814483   x
            x  Ni               76         0.817978   0.434171   0.938771   x
            x  Ni               77         0.942890   0.309563   0.938296   x
            x  Ni               78         0.942361   0.434400   0.813509   x
            x  Ni               79         0.568321   0.684682   0.939544   x
            x  Ni               80         0.693104   0.559003   0.939888   x
            x  Ni               81         0.693435   0.683021   0.814151   x
            x  Ni               82         0.818283   0.683137   0.938782   x
            x  Ni               83         0.942608   0.558810   0.938471   x
            x  Ni               84         0.942629   0.683104   0.813540   x
            x  Ni               85         0.569167   0.934450   0.937799   x
[...]
             Al 57 -- Ni 100                 0.19         0.00          2.58724
            Ni 12  -- Ni 89                  0.03        -0.00          2.58740
            Ni 101 -- Ni 144                 0.09         0.00          2.58787
            Ni 128 -- Ni 144                 0.15         0.00          2.58791
            Ni 25  -- Ni 153                 0.19        -0.00          2.58811
             Al 40 -- Ni 124                 0.19         0.00          2.58814
             Al 15 -- Ni 144                 0.17         0.00          2.58820
             Al 23 -- Ni 37                  0.20        -0.00          2.58829
            Ni 127 -- Ni 135                 0.19        -0.00          2.58843
            Ni 130 -- Ni 131                 0.11         0.00          2.58883
            Ni 29  -- Ni 48                  0.02        -0.00          2.58900
             Al 22 -- Ni 62                  0.20        -0.00          2.58909
            Ni 90  -- Ni 95                  0.01        -0.00          2.58911
             Al 46 -- Ni 150                 0.18         0.00          2.58916
            Ni 36  -- Ni 129                 0.11        -0.00          2.58923
             Al 38 -- Ni 181                 0.19        -0.00          2.58951
             Al 61 -- Ni 97                  0.18         0.00          2.58975
            Ni 183 -- Ni 185                 0.07        -0.00          2.58975
            Ni 100 -- Ni 101                 0.09        -0.00          2.58996
             Al 60 -- Ni 112                 0.17         0.00          2.59010
            Ni 71  -- Ni 96                  0.01        -0.00          2.59011
            Ni 25  -- Ni 126                -0.01         0.00          2.59031
             Al 40 -- Ni 145                 0.17         0.00          2.59033
            Ni 106 -- Ni 131                 0.01        -0.00          2.59084
             Al 16 -- Ni 40                  0.19         0.00          2.59155
             Al 63 -- Ni 97                  0.17        -0.00          2.59188
            Ni 151 -- Ni 181                -0.03         0.00          2.59209
            Ni 51  -- Ni 52                  0.04         0.00          2.59223
             Al 45 -- Ni 150                 0.15         0.00          2.59234
             Al 19 -- Ni 151                 0.24         0.00          2.59243
            Ni 34  -- Ni 41                  0.07         0.00          2.59266
            Ni 110 -- Ni 112                 0.05        -0.00          2.59289
            Ni 116 -- Ni 118                 0.02        -0.00          2.59331
            Ni 138 -- Ni 159                 0.03         0.00          2.59354
            Ni 114 -- Ni 140                 0.05         0.00          2.59385
             Al 12 -- Ni 32                  0.20        -0.00          2.59399
            Ni 147 -- Ni 164                 0.09         0.00          2.59403
             Al 51 -- Ni 124                 0.19        -0.00          2.59405
            Ni 111 -- Ni 115                 0.04         0.00          2.59433
             Al 17 -- Ni 134                 0.17         0.00          2.59440
            Ni 142 -- Ni 143                 0.05        -0.00          2.59440
             Al 9  -- Ni 144                 0.19         0.00          2.59462
            Ni 25  -- Ni 146                -0.03         0.00          2.59499
            Ni 55  -- Ni 181                 0.07         0.00          2.59502
            Ni 169 -- Ni 171                -0.00         0.00          2.59530
             Al 55 -- Ni 7                   0.18         0.00          2.59535
            Ni 41  -- Ni 66                 -0.03         0.00          2.59542
            Ni 13  -- Ni 120                 0.04         0.00          2.59545
            Ni 60  -- Ni 65                  0.01         0.00          2.59556
            Ni 1   -- Ni 8                   0.05         0.00          2.59560
            Ni 133 -- Ni 135                 0.11         0.00          2.59566
            Ni 13  -- Ni 139                -0.01         0.00          2.59579
            Ni 35  -- Ni 129                 0.10         0.00          2.59599
            Ni 155 -- Ni 156                 0.06         0.00          2.59638
             Al 41 -- Ni 129                 0.20         0.00          2.59689
             Al 36 -- Ni 190                 0.17        -0.00          2.59691
            Ni 99  -- Ni 169                 0.01        -0.00          2.59694
            Ni 31  -- Ni 38                  0.02         0.00          2.59712
            Ni 68  -- Ni 69                  0.02         0.00          2.59724
            Ni 150 -- Ni 178                 0.08         0.00          2.59750
            Ni 1   -- Ni 101                 0.03         0.00          2.59756
            Ni 113 -- Ni 139                 0.01         0.00          2.59765
            Ni 41  -- Ni 42                  0.03         0.00          2.59767
             Al 40 -- Ni 163                 0.16        -0.00          2.59798
            Ni 37  -- Ni 38                  0.06         0.00          2.59826
            Ni 151 -- Ni 174                -0.05         0.00          2.59829
             Al 60 -- Ni 113                 0.19         0.00          2.59874
             Al 15 -- Ni 37                  0.19        -0.00          2.59875
            Ni 123 -- Ni 124                 0.01        -0.00          2.59890
            Ni 146 -- Ni 147                 0.08         0.00          2.59971
            Ni 129 -- Ni 132                 0.11        -0.00          2.59973
             Al 38 -- Ni 188                 0.17        -0.00          2.59974
             Al 61 -- Ni 102                 0.16         0.00          2.60045
             Al 11 -- Ni 31                  0.27        -0.00          2.60102
            Ni 112 -- Ni 122                 0.11         0.00          2.60120
            Ni 13  -- Ni 20                  0.05         0.00          2.60130
            Ni 13  -- Ni 39                  0.01         0.00          2.60135
             Al 9  -- Ni 43                  0.20        -0.00          2.60168
             Al 3  -- Ni 180                 0.17         0.00          2.60179
             Al 34 -- Ni 162                 0.15        -0.00          2.60251
            Ni 155 -- Ni 157                 0.08        -0.00          2.60304
             Al 43 -- Ni 150                 0.19         0.00          2.60340
            Ni 95  -- Ni 96                  0.01        -0.00          2.60342
             Al 58 -- Ni 117                 0.15        -0.00          2.60397
            Ni 161 -- Ni 162                -0.00         0.00          2.60411
            Ni 59  -- Ni 78                 -0.01         0.00          2.60431
             Al 46 -- Ni 147                 0.13        -0.00          2.60462
             Al 49 -- Ni 139                 0.18         0.00          2.60471
            Ni 47  -- Ni 163                 0.06        -0.00          2.60477
            Ni 111 -- Ni 186                 0.08         0.00          2.60515
             Al 22 -- Ni 57                  0.19        -0.00          2.60637
             Al 50 -- Ni 142                 0.15        -0.00          2.60652
            Ni 53  -- Ni 54                 -0.00         0.00          2.60678
            Ni 178 -- Ni 185                 0.08        -0.00          2.60686
            Ni 146 -- Ni 174                 0.00         0.00          2.60728
            Ni 117 -- Ni 122                 0.03        -0.00          2.60806
            Ni 106 -- Ni 135                 0.05         0.00          2.60813
             Al 21 -- Ni 159                 0.16         0.00          2.60830
            Ni 71  -- Ni 90                  0.02         0.00          2.60858
             Al 17 -- Ni 49                  0.18         0.00          2.60866
             Al 48 -- Ni 120                 0.19        -0.00          2.60943
             Al 19 -- Ni 56                  0.17        -0.00          2.60992
             Al 51 -- Ni 163                 0.16        -0.00          2.60994
             Al 53 -- Ni 137                 0.18        -0.00          2.61096
            Ni 26  -- Ni 43                  0.05         0.00          2.61127
            Ni 129 -- Ni 130                 0.09         0.00          2.61154
            Ni 152 -- Ni 158                 0.00         0.00          2.61183
             Al 58 -- Ni 122                 0.18        -0.00          2.61184
             Al 47 -- Ni 150                 0.19        -0.00          2.61188
            Ni 121 -- Ni 173                 0.01         0.00          2.61211
             Al 40 -- Ni 143                 0.18         0.00          2.61217
            Ni 170 -- Ni 171                -0.02         0.00          2.61220
            Ni 151 -- Ni 152                 0.04         0.00          2.61249
             Al 11 -- Ni 107                 0.20         0.00          2.61252
            Ni 173 -- Ni 192                -0.00         0.00          2.61309
            Ni 54  -- Ni 59                 -0.00         0.00          2.61313
            Ni 115 -- Ni 117                 0.10         0.00          2.61361
             Al 56 -- Ni 147                 0.16        -0.00          2.61399
             Al 46 -- Ni 153                 0.12         0.00          2.61426
            Ni 65  -- Ni 66                  0.02         0.00          2.61428
            Ni 178 -- Ni 184                 0.03         0.00          2.61434
            Ni 143 -- Ni 167                 0.01         0.00          2.61438
            Ni 152 -- Ni 160                -0.00         0.00          2.61446
             Al 38 -- Ni 177                 0.17         0.00          2.61507
            Ni 42  -- Ni 47                 -0.01        -0.00          2.61547
            Ni 156 -- Ni 167                 0.11         0.00          2.61575
            Ni 53  -- Ni 78                  0.00         0.00          2.61617
             Al 34 -- Ni 122                 0.16         0.00          2.61628
             Al 38 -- Ni 178                 0.17         0.00          2.61783
            Ni 138 -- Ni 160                 0.05         0.00          2.61826
            Ni 37  -- Ni 39                  0.01         0.00          2.61853
             Al 36 -- Ni 184                 0.18         0.00          2.61863
            Ni 158 -- Ni 181                -0.02         0.00          2.61868
             Al 36 -- Ni 122                 0.17         0.00          2.61873
            Ni 172 -- Ni 177                -0.02         0.00          2.61922
            Ni 117 -- Ni 191                 0.08        -0.00          2.61930
            Ni 169 -- Ni 172                 0.00        -0.00          2.61930
            Ni 110 -- Ni 118                 0.04        -0.00          2.61955
            Ni 133 -- Ni 160                -0.03         0.00          2.61995
             Al 35 -- Ni 122                 0.17         0.00          2.62088
             Al 61 -- Ni 104                 0.15        -0.00          2.62115
             Al 58 -- Ni 119                 0.16        -0.00          2.62218
            Ni 140 -- Ni 141                 0.07        -0.00          2.62261
            Ni 65  -- Ni 148                 0.04         0.00          2.62316
             Al 5  -- Ni 115                 0.15         0.00          2.62318
            Ni 168 -- Ni 177                 0.03        -0.00          2.62323
            Ni 130 -- Ni 153                -0.00         0.00          2.62326
            Ni 147 -- Ni 170                -0.03         0.00          2.62385
             Al 50 -- Ni 117                 0.15        -0.00          2.62415
            Ni 136 -- Ni 141                 0.02        -0.00          2.62436
            Ni 158 -- Ni 160                 0.12         0.00          2.62486
            Ni 102 -- Ni 108                 0.10         0.00          2.62552
            Ni 178 -- Ni 179                 0.06         0.00          2.62556
            Ni 7   -- Ni 107                -0.01         0.00          2.62577
             Al 19 -- Ni 49                  0.17        -0.00          2.62592
            Ni 102 -- Ni 109                -0.01        -0.00          2.62637
            Ni 159 -- Ni 160                 0.09         0.00          2.62648
            Ni 124 -- Ni 125                 0.03        -0.00          2.62654
            Ni 170 -- Ni 175                -0.03         0.00          2.62678
            Ni 31  -- Ni 32                  0.08         0.00          2.62709
             Al 43 -- Ni 155                 0.18         0.00          2.62724
            Ni 156 -- Ni 157                 0.12         0.00          2.62740
            Ni 130 -- Ni 149                -0.01         0.00          2.62795
             Al 56 -- Ni 130                 0.20         0.00          2.62853
            Ni 108 -- Ni 111                 0.02         0.00          2.62995
            Ni 150 -- Ni 153                -0.04         0.00          2.63160
             Al 42 -- Ni 153                 0.17        -0.00          2.63226
             Al 5  -- Ni 7                   0.19         0.00          2.63284
             Al 59 -- Ni 7                   0.16         0.00          2.63337
            Ni 154 -- Ni 155                 0.06         0.00          2.63458
            Ni 155 -- Ni 188                 0.03         0.00          2.63624
             Al 39 -- Ni 178                 0.18        -0.00          2.63629
             Al 23 -- Ni 166                 0.14         0.00          2.63750
             Al 52 -- Ni 31                  0.18         0.00          2.63842
             Al 38 -- Ni 182                 0.16         0.00          2.63920
            Ni 114 -- Ni 138                 0.00         0.00          2.63945
             Al 37 -- Ni 190                 0.15        -0.00          2.64007
            Ni 126 -- Ni 127                -0.00         0.00          2.64011
             Al 56 -- Ni 128                 0.13        -0.00          2.64087
             Al 48 -- Al 49                  0.26         0.00          2.64310
             Al 19 -- Ni 31                  0.24        -0.00          2.64323
            Ni 156 -- Ni 162                 0.12         0.00          2.64329
             Al 48 -- Al 50                  0.25        -0.00          2.64394
            Ni 162 -- Ni 164                 0.01         0.00          2.64418
             Al 13 -- Ni 139                 0.16         0.00          2.64528
             Al 23 -- Ni 159                 0.13         0.00          2.64666
             Al 3  -- Ni 7                   0.18         0.00          2.64825
             Al 63 -- Ni 100                 0.16         0.00          2.64891
             Al 33 -- Ni 122                 0.15         0.00          2.64951
             Al 50 -- Al 58                  0.24        -0.00          2.65007
             Al 35 -- Ni 190                 0.13        -0.00          2.65099
             Al 52 -- Ni 37                  0.15         0.00          2.65101
             Al 37 -- Ni 122                 0.16         0.00          2.65159
             Al 21 -- Ni 31                  0.16         0.00          2.65226
             Al 35 -- Ni 189                 0.15         0.00          2.65334
            Ni 114 -- Ni 133                -0.02         0.00          2.65909
            Ni 7   -- Ni 8                   0.06         0.00          2.66110
             Al 50 -- Ni 119                 0.13        -0.00          2.66126
            Ni 31  -- Ni 57                  0.05         0.00          2.66688
             Al 23 -- Al 49                  0.24         0.00          2.66743
             Al 43 -- Ni 160                 0.15        -0.00          2.66782
             Al 42 -- Al 43                  0.24         0.00          2.66791
             Al 38 -- Al 45                  0.23         0.00          2.66901
            Ni 7   -- Ni 9                   0.05         0.00          2.67078
            Ni 148 -- Ni 150                 0.08        -0.00          2.67507
            Ni 161 -- Ni 170                 0.03         0.00          2.68077
             Al 11 -- Al 55                  0.26         0.00          2.69627
            Ni 168 -- Ni 169                 0.01        -0.00          2.69834
             Al 45 -- Al 62                  0.19         0.00          2.70965
             Al 5  -- Al 59                  0.20         0.00          2.71657
             Al 42 -- Al 45                  0.21         0.00          2.71824
            Ni 149 -- Ni 150                -0.00         0.00          2.71913
             Al 44 -- Al 45                  0.20         0.00          2.72159
            Ni 164 -- Ni 170                 0.04         0.00          2.72367
             Al 36 -- Al 37                  0.22         0.00          2.72405
             Al 34 -- Al 35                  0.19        -0.00          2.73418
             Al 21 -- Al 52                  0.20         0.00          2.73670
             Al 33 -- Al 58                  0.20         0.00          2.74028
             Al 33 -- Al 35                  0.20         0.00          2.74162
             Al 34 -- Al 37                  0.20         0.00          2.74301
             Al 52 -- Al 55                  0.24         0.00          2.74406
             Al 46 -- Al 47                  0.19         0.00          2.74561
             Al 61 -- Al 63                  0.20        -0.00          2.74643
             Al 46 -- Al 56                  0.19        -0.00          2.75682
             Al 57 -- Al 63                  0.18         0.00          2.75920
             Al 15 -- Al 49                  0.20         0.00          2.76939
             Al 44 -- Al 46                  0.17         0.00          2.77148
             Al 47 -- Al 62                  0.17         0.00          2.77406
             Al 40 -- Al 51                  0.20         0.00          2.77626
             Al 41 -- Al 43                  0.16         0.00          2.78390
             Al 53 -- Al 54                  0.17         0.00          2.79430
             Al 55 -- Al 59                  0.16         0.00          2.79466
             Al 41 -- Al 53                  0.17         0.00          2.79957
             Al 43 -- Al 54                  0.17         0.00          2.80055
             Al 42 -- Ni 150                 0.11         0.00          2.80400
             Al 13 -- Al 59                  0.18        -0.00          2.82015
             Al 13 -- Al 52                  0.17         0.00          2.82301
             Al 56 -- Al 57                  0.15        -0.00          2.82427
             Al 56 -- Ni 124                 0.06         0.00          2.84552
             Al 41 -- Al 54                  0.12         0.00          2.87051
             Al 44 -- Al 62                  0.11         0.00          2.89813
             Al 13 -- Al 55                  0.05         0.00          2.99232
================================================================================
 

Writing analysis data to castep.castep_bin

Writing model to castep.check
 
 A BibTeX formatted list of references used in this run has been written to 
 castep.bib
 
Initialisation time =     24.93 s
Calculation time    =  16133.56 s
Finalisation time   =      9.12 s
Total time          =  16167.61 s
Peak Memory Use     = 3973644 kB
 
Overall parallel efficiency rating: Satisfactory (66%)
 
Data was distributed by:-
G-vector (128-way); efficiency rating: Satisfactory (68%)
