 +-------------------------------------------------+
 |                                                 |
 |      CCC   AA    SSS  TTTTT  EEEEE  PPPP        |
 |     C     A  A  S       T    E      P   P       |
 |     C     AAAA   SS     T    EEE    PPPP        |
 |     C     A  A     S    T    E      P           |
 |      CCC  A  A  SSS     T    EEEEE  P           |
 |                                                 |
 +-------------------------------------------------+
 |                                                 |
 | Welcome to Academic Release CASTEP version 20.11|          
 | Ab Initio Total Energy Program                  |
 |                                                 |
 | Authors:                                        |
 | M. Segall, M. Probert, C. Pickard, P. Hasnip,   |
 | S. Clark, K. Refson, J. R. Yates, M. Payne      |
 |                                                 |
 | Contributors:                                   |
 | P. Lindan, P. Haynes, J. White, V. Milman,      |
 | N. Govind, M. Gibson, P. Tulip, V. Cocula,      |
 | B. Montanari, D. Quigley, M. Glover,            |
 | L. Bernasconi, A. Perlov, M. Plummer,           |
 | E. McNellis, J. Meyer, J. Gale, D. Jochym       |
 | J. Aarons, B. Walker, R. Gillen, D. Jones       |
 | T. Green, I. J. Bush, C. J. Armstrong,          |
 | E. J. Higgins, E. L. Brown, M. S. McFly,        |
 | J. Wilkins, B-C. Shih, P. J. P. Byrne,          |
 | R. J. Maurer, J. C. Womack, J. Dziedzic,        |
 | J. R. Kermode, A. Bartok-Partay                 |
 |                                                 |
 | Copyright (c) 2000 - 2020                       |
 |                                                 |
 |     Distributed under license from Cambridge    |
 |     Enterprise for academic use only.           |
 |                                                 |
 | Please cite                                     |
 |                                                 |
 |     "First principles methods using CASTEP"     |
 |                                                 |
 |         Zeitschrift fuer Kristallographie       |
 |           220(5-6) pp. 567-570 (2005)           |
 |                                                 |
 | S. J. Clark, M. D. Segall, C. J. Pickard,       |
 | P. J. Hasnip, M. J. Probert, K. Refson,         |
 | M. C. Payne                                     |
 |                                                 |
 |       in all publications arising from          |
 |              your use of CASTEP                 |
 |                                                 |
 +-------------------------------------------------+
 |                                                 |
 |              http://www.castep.org              |
 |                                                 |
 +-------------------------------------------------+
 
 
 
 Compiled for linux_x86_64_ifort on Wed, 25 Aug 2021 18:50:38 +0100
 from code version e772bf432+  HEAD  Sat Apr 3 17:41:32 2021 +0100
 Compiler: Intel Fortran 19.0.5.281; Optimisation: fast
 MATHLIBS: Intel MKL(2019.0.5) (LAPACK version 3.7.0)
 FFT Lib : mkl
 Fundamental constants values: CODATA 2014
 
 Run started: Thu, 09 Mar 2023 04:55:37 +0000
 
 Atomic calculation performed for Al: 1s2 2s2 2p6 3s2 3p1
 
 Converged in 52 iterations to an ae energy of -6606.982 eV
 
   ============================================================                
   | Pseudopotential Report - Date of generation  9-03-2023   |                
   ------------------------------------------------------------                
   | Element: Al Ionic charge:  3.00 Level of theory: RPBE    |                
   | Atomic Solver: Koelling-Harmon                           |                
   |                                                          |                
   |               Reference Electronic Structure             |                
   |         Orbital         Occupation         Energy        |                
   |            3s              2.000           -0.284        |                
   |            3p              1.000           -0.100        |                
   |                                                          |                
   |                 Pseudopotential Definition               |                
   |        Beta     l      e      Rc     scheme   norm       |                
   |          1      0   -0.284   2.192     qc      0         |                
   |          2      0    0.250   2.192     qc      0         |                
   |          3      1   -0.100   2.192     qc      0         |                
   |          4      1    0.250   2.192     qc      0         |                
   |          5      2    0.000   2.000     qc      0         |                
   |          6      2    0.250   2.000     qc      0         |                
   |         loc     3    0.000   2.192     pn      0         |                
   |                                                          |                
   | Augmentation charge Rinner = 1.398                       |                
   | Partial core correction Rc = 1.398                       |                
   ------------------------------------------------------------                
   | "3|2.2|2.2|1.4|4|5|5|30:31:32U2U2"                       |                
   ------------------------------------------------------------                
   |      Author: Chris J. Pickard, Cambridge University      |                
   ============================================================                
 
 Atomic calculation performed for Ni: 1s2 2s2 2p6 3s2 3p6 3d8 4s2
 
 Converged in 109 iterations to an ae energy of -41381.414 eV
 
   ============================================================                
   | Pseudopotential Report - Date of generation  9-03-2023   |                
   ------------------------------------------------------------                
   | Element: Ni Ionic charge: 10.00 Level of theory: RPBE    |                
   | Atomic Solver: Koelling-Harmon                           |                
   |                                                          |                
   |               Reference Electronic Structure             |                
   |         Orbital         Occupation         Energy        |                
   |            3d              8.000           -0.324        |                
   |            4s              2.000           -0.204        |                
   |                                                          |                
   |                 Pseudopotential Definition               |                
   |        Beta     l      e      Rc     scheme   norm       |                
   |          1      0   -0.204   2.401     qc      0         |                
   |          2      0    0.250   2.401     qc      0         |                
   |          3      1    0.000   2.401     qc      0         |                
   |          4      1    0.250   2.401     qc      0         |                
   |          5      2   -0.324   1.999     qc      0         |                
   |          6      2    0.250   1.999     qc      0         |                
   |         loc     3    0.000   2.401     pn      0         |                
   |                                                          |                
   | Augmentation charge Rinner = 1.001                       |                
   | Partial core correction Rc = 1.001                       |                
   ------------------------------------------------------------                
   | "3|2.4|2.4|1.0|8|9|10|40:41:32U2U2(qc=5.5)"              |                
   ------------------------------------------------------------                
   |      Author: Chris J. Pickard, Cambridge University      |                
   ============================================================                
 
 Pseudo atomic calculation performed for Al 3s2 3p1
 
 Converged in 13 iterations to a total energy of -107.6592 eV
 
 Pseudo atomic calculation performed for Ni 3d8 4s2
 
 Converged in 41 iterations to a total energy of -1369.7891 eV
 Calculation parallelised over 48 processes.
 Data is distributed by G-vector(48-way)

 ************************************ Title ************************************
 

 ***************************** General Parameters ******************************
  
 output verbosity                               : normal  (1)
 write checkpoint data to                       : castep.check
 type of calculation                            : geometry optimization
 stress calculation                             : off
 density difference calculation                 : off
 electron localisation func (ELF) calculation   : off
 Hirshfeld analysis                             : off
 molecular orbital projected DOS                : off
 deltaSCF calculation                           : off
 unlimited duration calculation
 timing information                             : on
 memory usage estimate                          : on
 write extra output files                       : on
 write final potential to formatted file        : off
 write final density to formatted file          : off
 write BibTeX reference list                    : on
 write OTFG pseudopotential files               : on
 write electrostatic potential file             : on
 write bands file                               : on
 checkpoint writing                             : both castep_bin and check files
  
 output         length unit                     : A
 output           mass unit                     : amu
 output           time unit                     : ps
 output         charge unit                     : e
 output           spin unit                     : hbar/2
 output         energy unit                     : eV
 output          force unit                     : eV/A
 output       velocity unit                     : A/ps
 output       pressure unit                     : GPa
 output     inv_length unit                     : 1/A
 output      frequency unit                     : cm-1
 output force constant unit                     : eV/A**2
 output         volume unit                     : A**3
 output   IR intensity unit                     : (D/A)**2/amu
 output         dipole unit                     : D
 output         efield unit                     : eV/A/e
 output        entropy unit                     : J/mol/K
 output    efield chi2 unit                     : pm/V
  
 wavefunctions paging                           : none
 random number generator seed                   : randomised (45537148)
 data distribution                              : optimal for this architecture
 optimization strategy                          : maximize speed(+++)

 *********************** Exchange-Correlation Parameters ***********************
  
 using functional                               : revised Perdew Burke Ernzerhof
 relativistic treatment                         : Koelling-Harmon
 DFT+D: Semi-empirical dispersion correction    : off

 ************************* Pseudopotential Parameters **************************
  
 pseudopotential representation                 : reciprocal space
 <beta|phi> representation                      : reciprocal space
 spin-orbit coupling                            : off

 **************************** Basis Set Parameters *****************************
  
 plane wave basis set cut-off                   :   900.0000   eV
 size of standard grid                          :     1.7500
 size of   fine   gmax                          :    26.8966   1/A
 finite basis set correction                    : none

 **************************** Electronic Parameters ****************************
  
 number of  electrons                           :  2109.    
 net charge of system                           :  0.000    
 net spin   of system                           :  1.000    
 number of  up  spins                           :  1055.    
 number of down spins                           :  1054.    
 treating system as spin-polarized
 number of bands                                :       1167

 ********************* Electronic Minimization Parameters **********************
  
 Method: Treating system as metallic with density mixing treatment of electrons,
         and number of  SD  steps               :          1
         and number of  CG  steps               :          4
  
 total energy / atom convergence tol.           : 0.1000E-05   eV
 eigen-energy convergence tolerance             : 0.2185E-06   eV
 max force / atom convergence tol.              : ignored
 convergence tolerance window                   :          3   cycles
 max. number of SCF cycles                      :        200
 number of fixed-spin iterations                :         10
 smearing scheme                                : Gaussian
 smearing width                                 : 0.2000       eV
 Fermi energy convergence tolerance             : 0.2721E-13   eV
 periodic dipole correction                     : NONE
 periodically dump wavefunctions to             : castep.wvfn
 dump wavefunctions every                       :          1   SCF cycles

 ************************** Density Mixing Parameters **************************
  
 density-mixing scheme                          : Pulay
 max. length of mixing history                  :         20
 charge density mixing amplitude                : 0.8000    
   spin density mixing amplitude                :  2.000    
 cut-off energy for mixing                      :  900.0       eV

 *********************** Population Analysis Parameters ************************
  
 Population analysis with cutoff                :  3.000       A
 Population analysis output                     : summary and pdos components

 ********************** Geometry Optimization Parameters ***********************
  
 optimization method                            : LBFGS
 max. no. of LBFGS updates                      : unbounded
 variable cell method                           : fixed basis quality
 max. number of steps                           :         30
 estimated bulk modulus                         :  500.0       GPa
 estimated <frequency>                          :  1668.       cm-1
 geom line minimiser                            : on
 with line minimiser tolerance                  :     0.4000
  with spin fully able to relax for all steps
 total energy convergence tolerance             : 0.2000E-04   eV/atom
        max ionic |force| tolerance             : 0.5000E-01   eV/A
 max ionic |displacement| tolerance             : 0.1000E-02   A
   max |stress component| tolerance             : 0.1000       GPa
 convergence tolerance window                   :          2   steps
 backup results every                           :          5   steps
 write geom trajectory file                     : on

 *******************************************************************************
  
 
                           -------------------------------
                                      Unit Cell
                           -------------------------------
        Real Lattice(A)                      Reciprocal Lattice(1/A)
    14.4648280     0.0000000     0.0000000        0.434376773   0.000000000   0.000000000
     0.0000000    14.4648280     0.0000000        0.000000000   0.434376773   0.000000000
     0.0000000     0.0000000    14.4648280        0.000000000   0.000000000   0.434376773
 
                       Lattice parameters(A)       Cell Angles
                    a =     14.464828          alpha =   90.000000
                    b =     14.464828          beta  =   90.000000
                    c =     14.464828          gamma =   90.000000
 
                       Current cell volume =          3026.494030       A**3
                                   density =             4.285146   AMU/A**3
                                           =             7.115653     g/cm^3
 
                           -------------------------------
                                     Cell Contents
                           -------------------------------
                         Total number of ions in cell =  255
                      Total number of species in cell =    2
                        Max number of any one species =  192
 
            xxxxxxxxxxxxxxxxxxxxxxxxxxxxxxxxxxxxxxxxxxxxxxxxxxxxxxxxxxxx
            x  Element    Atom        Fractional coordinates of atoms  x
            x            Number           u          v          w      x
            x----------------------------------------------------------x
            x  Al           1         0.570600   0.937923   0.188752   x 
            x  Al           2         0.818101   0.938932   0.187431   x 
            x  Al           3         0.569932   0.189784   0.189378   x 
            x  Al           4         0.817840   0.188677   0.187664   x 
            x  Al           5         0.573399   0.440016   0.185685   x 
            x  Al           6         0.819326   0.438224   0.186798   x 
            x  Al           7         0.571320   0.687247   0.188476   x 
            x  Al           8         0.819415   0.688589   0.186753   x 
            x  Al           9         0.569906   0.936402   0.435634   x 
            x  Al          10         0.817710   0.938795   0.437395   x 
            x  Al          11         0.568938   0.190301   0.435193   x 
            x  Al          12         0.817390   0.188685   0.437497   x 
            x  Al          13         0.576303   0.440746   0.437752   x 
            x  Al          14         0.819266   0.438304   0.437638   x 
            x  Al          15         0.573856   0.686982   0.433492   x 
            x  Al          16         0.819412   0.688465   0.437340   x 
            x  Al          17         0.572649   0.936534   0.686558   x 
            x  Al          18         0.816822   0.939462   0.687284   x 
            x  Al          19         0.569570   0.189828   0.686102   x 
            x  Al          20         0.816411   0.188361   0.687240   x 
            x  Al          21         0.572995   0.439155   0.689238   x 
            x  Al          22         0.818850   0.437708   0.688146   x 
            x  Al          23         0.576723   0.687099   0.692802   x 
            x  Al          24         0.819093   0.688424   0.688021   x 
            x  Al          25         0.571729   0.938366   0.939128   x 
            x  Al          26         0.817292   0.939537   0.937917   x 
            x  Al          27         0.568928   0.189375   0.939693   x 
            x  Al          28         0.817143   0.188367   0.937629   x 
            x  Al          29         0.570103   0.438342   0.938187   x 
            x  Al          30         0.818897   0.437599   0.937646   x 
            x  Al          31         0.571821   0.687482   0.937199   x 
            x  Al          32         0.819392   0.688660   0.938179   x 
            x  Al          33         0.328750   0.811720   0.059207   x 
            x  Al          34         0.056524   0.686550   0.931788   x 
            x  Al          35         0.192866   0.819061   0.929681   x 
            x  Al          36         0.321748   0.564635   0.064608   x 
            x  Al          37         0.193288   0.559077   0.928982   x 
            x  Al          38         0.318097   0.320533   0.068891   x 
            x  Al          39         0.074381   0.318748   0.053976   x 
            x  Al          40         0.197986   0.818295   0.697158   x 
            x  Al          41         0.069500   0.435313   0.686992   x 
            x  Al          42         0.325434   0.314482   0.812208   x 
            x  Al          43         0.194119   0.297269   0.685756   x 
            x  Al          44         0.331145   0.058170   0.809763   x 
            x  Al          45         0.327710   0.186026   0.944805   x 
            x  Al          46         0.190490   0.062414   0.681394   x 
            x  Al          47         0.063188   0.065678   0.813248   x 
            x  Al          48         0.317619   0.692464   0.436465   x 
            x  Al          49         0.440738   0.688136   0.569045   x 
            x  Al          50         0.185985   0.685197   0.309444   x 
            x  Al          51         0.067653   0.815052   0.565872   x 
            x  Al          52         0.429317   0.440798   0.556700   x 
            x  Al          53         0.072478   0.574765   0.565534   x 
            x  Al          54         0.208133   0.437993   0.548136   x 
            x  Al          55         0.325570   0.192095   0.432641   x 
            x  Al          56         0.329906   0.056284   0.562161   x 
            x  Al          57         0.184644   0.052774   0.435786   x 
            x  Al          58         0.187006   0.815842   0.181396   x 
            x  Al          59         0.429182   0.442591   0.318781   x 
            x  Al          60         0.193956   0.441335   0.315299   x 
            x  Al          61         0.190971   0.055884   0.179286   x 
            x  Al          62         0.192181   0.057747   0.946804   x 
            x  Al          63         0.184171   0.194904   0.305089   x 
            x  Ni           1         0.568022   0.062849   0.312158   x 
            x  Ni           2         0.694190   0.938182   0.312367   x 
            x  Ni           3         0.693647   0.063968   0.188287   x 
            x  Ni           4         0.817676   0.064116   0.312652   x 
            x  Ni           5         0.942098   0.939122   0.312381   x 
            x  Ni           6         0.942220   0.063994   0.187350   x 
            x  Ni           7         0.567202   0.318868   0.311890   x 
            x  Ni           8         0.692567   0.189729   0.312621   x 
            x  Ni           9         0.694345   0.313858   0.187628   x 
            x  Ni          10         0.818739   0.313318   0.312409   x 
            x  Ni          11         0.942377   0.188557   0.312443   x 
            x  Ni          12         0.942773   0.313095   0.187110   x 
            x  Ni          13         0.567831   0.560622   0.311782   x 
            x  Ni          14         0.696120   0.439101   0.311766   x 
            x  Ni          15         0.695515   0.563682   0.186841   x 
            x  Ni          16         0.820022   0.563457   0.311875   x 
            x  Ni          17         0.942974   0.438032   0.312176   x 
            x  Ni          18         0.943384   0.563206   0.186827   x 
            x  Ni          19         0.568941   0.812680   0.311545   x 
            x  Ni          20         0.695449   0.687546   0.311311   x 
            x  Ni          21         0.694304   0.813051   0.187262   x 
            x  Ni          22         0.818800   0.813516   0.312028   x 
            x  Ni          23         0.943090   0.688667   0.312089   x 
            x  Ni          24         0.942830   0.814102   0.187110   x 
            x  Ni          25         0.449712   0.061619   0.685747   x 
            x  Ni          26         0.692508   0.937673   0.561215   x 
            x  Ni          27         0.692508   0.063737   0.436811   x 
            x  Ni          28         0.816614   0.064005   0.562179   x 
            x  Ni          29         0.941693   0.939224   0.562661   x 
            x  Ni          30         0.941856   0.063943   0.437606   x 
            x  Ni          31         0.566275   0.317828   0.561831   x 
            x  Ni          32         0.691197   0.189463   0.561329   x 
            x  Ni          33         0.694053   0.313904   0.437292   x 
            x  Ni          34         0.817985   0.313144   0.562666   x 
            x  Ni          35         0.941925   0.188462   0.562701   x 
            x  Ni          36         0.942568   0.313173   0.437632   x 
            x  Ni          37         0.566971   0.563462   0.563544   x 
            x  Ni          38         0.694999   0.439303   0.563208   x 
            x  Ni          39         0.696410   0.563944   0.437370   x 
            x  Ni          40         0.819814   0.563380   0.562942   x 
            x  Ni          41         0.942842   0.437925   0.562904   x 
            x  Ni          42         0.943142   0.563238   0.437490   x 
            x  Ni          43         0.569139   0.808950   0.562362   x 
            x  Ni          44         0.694556   0.687216   0.562660   x 
            x  Ni          45         0.694758   0.812631   0.436887   x 
            x  Ni          46         0.818400   0.813508   0.562347   x 
            x  Ni          47         0.943039   0.688683   0.562832   x 
            x  Ni          48         0.942407   0.813978   0.437435   x 
            x  Ni          49         0.568192   0.063966   0.812625   x 
            x  Ni          50         0.693315   0.939147   0.813021   x 
            x  Ni          51         0.691520   0.063984   0.686555   x 
            x  Ni          52         0.816712   0.064227   0.812457   x 
            x  Ni          53         0.941920   0.939580   0.812477   x 
            x  Ni          54         0.941562   0.064058   0.687507   x 
            x  Ni          55         0.566951   0.313840   0.813252   x 
            x  Ni          56         0.691681   0.188784   0.812757   x 
            x  Ni          57         0.693176   0.313416   0.687492   x 
            x  Ni          58         0.817812   0.312625   0.812748   x 
            x  Ni          59         0.941987   0.188351   0.812401   x 
            x  Ni          60         0.942305   0.312821   0.687775   x 
            x  Ni          61         0.569645   0.562307   0.814011   x 
            x  Ni          62         0.694509   0.437674   0.813624   x 
            x  Ni          63         0.696171   0.562734   0.688477   x 
            x  Ni          64         0.819574   0.562727   0.813351   x 
            x  Ni          65         0.943030   0.437653   0.812730   x 
            x  Ni          66         0.943114   0.563153   0.688031   x 
            x  Ni          67         0.570947   0.812636   0.813725   x 
            x  Ni          68         0.696767   0.687997   0.814492   x 
            x  Ni          69         0.695667   0.813314   0.687759   x 
            x  Ni          70         0.818629   0.814428   0.813226   x 
            x  Ni          71         0.942877   0.688736   0.812759   x 
            x  Ni          72         0.942009   0.814265   0.687727   x 
            x  Ni          73         0.567983   0.064075   0.065427   x 
            x  Ni          74         0.693220   0.938618   0.063584   x 
            x  Ni          75         0.692106   0.064370   0.938411   x 
            x  Ni          76         0.817513   0.064028   0.062686   x 
            x  Ni          77         0.942435   0.939354   0.062222   x 
            x  Ni          78         0.942012   0.064044   0.937314   x 
            x  Ni          79         0.567806   0.314901   0.063772   x 
            x  Ni          80         0.692763   0.188970   0.063480   x 
            x  Ni          81         0.693006   0.313102   0.937996   x 
            x  Ni          82         0.818346   0.312964   0.062305   x 
            x  Ni          83         0.942419   0.188435   0.062281   x 
            x  Ni          84         0.942699   0.312764   0.937338   x 
            x  Ni          85         0.568584   0.563682   0.062154   x 
            x  Ni          86         0.694889   0.438460   0.062023   x 
            x  Ni          87         0.695075   0.562828   0.938126   x 
            x  Ni          88         0.819484   0.563349   0.062120   x 
            x  Ni          89         0.943143   0.437880   0.062032   x 
            x  Ni          90         0.943476   0.563115   0.937452   x 
            x  Ni          91         0.568239   0.811867   0.063274   x 
            x  Ni          92         0.694401   0.688260   0.062489   x 
            x  Ni          93         0.694411   0.813635   0.938664   x 
            x  Ni          94         0.818735   0.813984   0.062553   x 
            x  Ni          95         0.943474   0.688723   0.062081   x 
            x  Ni          96         0.942810   0.814441   0.937459   x 
            x  Ni          97         0.069126   0.059827   0.306747   x 
            x  Ni          98         0.191008   0.935793   0.307933   x 
            x  Ni          99         0.063631   0.934838   0.182252   x 
            x  Ni         100         0.311404   0.065072   0.311614   x 
            x  Ni         101         0.442760   0.936417   0.312113   x 
            x  Ni         102         0.316816   0.188825   0.187714   x 
            x  Ni         103         0.319798   0.935376   0.186505   x 
            x  Ni         104         0.063599   0.191269   0.179679   x 
            x  Ni         105         0.063974   0.318030   0.310805   x 
            x  Ni         106         0.314539   0.314488   0.309898   x 
            x  Ni         107         0.444098   0.190315   0.310138   x 
            x  Ni         108         0.444142   0.318121   0.190024   x 
            x  Ni         109         0.189287   0.317731   0.185552   x 
            x  Ni         110         0.066200   0.564351   0.310606   x 
            x  Ni         111         0.316936   0.442451   0.189356   x 
            x  Ni         112         0.190321   0.565970   0.183335   x 
            x  Ni         113         0.313999   0.568258   0.311747   x 
            x  Ni         114         0.443125   0.318119   0.435721   x 
            x  Ni         115         0.444388   0.563664   0.189058   x 
            x  Ni         116         0.064944   0.810643   0.307974   x 
            x  Ni         117         0.316033   0.690701   0.185022   x 
            x  Ni         118         0.066664   0.687736   0.180350   x 
            x  Ni         119         0.314554   0.810244   0.309703   x 
            x  Ni         120         0.443339   0.687463   0.312350   x 
            x  Ni         121         0.444829   0.812131   0.188159   x 
            x  Ni         122         0.193348   0.690043   0.053196   x 
            x  Ni         123         0.064551   0.060142   0.562030   x 
            x  Ni         124         0.193118   0.936196   0.563557   x 
            x  Ni         125         0.062285   0.933139   0.435753   x 
            x  Ni         126         0.448582   0.933804   0.560549   x 
            x  Ni         127         0.443403   0.062422   0.433709   x 
            x  Ni         128         0.319371   0.936376   0.435234   x 
            x  Ni         129         0.072360   0.313120   0.563460   x 
            x  Ni         130         0.196098   0.180187   0.555264   x 
            x  Ni         131         0.191805   0.310575   0.434390   x 
            x  Ni         132         0.065773   0.187141   0.435191   x 
            x  Ni         133         0.317401   0.307991   0.561503   x 
            x  Ni         134         0.567432   0.062792   0.559701   x 
            x  Ni         135         0.446300   0.189086   0.559258   x 
            x  Ni         136         0.067038   0.690924   0.437790   x 
            x  Ni         137         0.071149   0.443525   0.441022   x 
            x  Ni         138         0.315590   0.569002   0.563266   x 
            x  Ni         139         0.442361   0.566319   0.438701   x 
            x  Ni         140         0.192150   0.568906   0.437325   x 
            x  Ni         141         0.194881   0.695596   0.565496   x 
            x  Ni         142         0.190545   0.814586   0.435062   x 
            x  Ni         143         0.318463   0.814530   0.563964   x 
            x  Ni         144         0.444102   0.809556   0.437068   x 
            x  Ni         145         0.064367   0.939062   0.689447   x 
            x  Ni         146         0.450454   0.936295   0.812508   x 
            x  Ni         147         0.323000   0.939193   0.687347   x 
            x  Ni         148         0.067356   0.308824   0.811931   x 
            x  Ni         149         0.064922   0.185727   0.687302   x 
            x  Ni         150         0.198937   0.178672   0.816148   x 
            x  Ni         151         0.445991   0.188906   0.812958   x 
            x  Ni         152         0.444593   0.314905   0.685245   x 
            x  Ni         153         0.322889   0.182911   0.686505   x 
            x  Ni         154         0.066030   0.560917   0.809413   x 
            x  Ni         155         0.193969   0.432204   0.807641   x 
            x  Ni         156         0.192567   0.562611   0.687869   x 
            x  Ni         157         0.318435   0.561188   0.811382   x 
            x  Ni         158         0.445150   0.439132   0.810622   x 
            x  Ni         159         0.443852   0.562028   0.687412   x 
            x  Ni         160         0.316149   0.435117   0.685039   x 
            x  Ni         161         0.065275   0.815396   0.811309   x 
            x  Ni         162         0.191821   0.688600   0.814864   x 
            x  Ni         163         0.068763   0.691828   0.689958   x 
            x  Ni         164         0.321030   0.815990   0.814681   x 
            x  Ni         165         0.446128   0.687111   0.810927   x 
            x  Ni         166         0.446092   0.812148   0.688990   x 
            x  Ni         167         0.318490   0.690014   0.691405   x 
            x  Ni         168         0.065336   0.061379   0.059150   x 
            x  Ni         169         0.194483   0.932403   0.059486   x 
            x  Ni         170         0.193918   0.947226   0.812551   x 
            x  Ni         171         0.063261   0.938400   0.933177   x 
            x  Ni         172         0.320146   0.061989   0.063796   x 
            x  Ni         173         0.447564   0.937737   0.064073   x 
            x  Ni         174         0.447337   0.062826   0.939818   x 
            x  Ni         175         0.323701   0.939141   0.937774   x 
            x  Ni         176         0.067507   0.441518   0.183712   x 
            x  Ni         177         0.193893   0.189150   0.062921   x 
            x  Ni         178         0.199525   0.310616   0.934930   x 
            x  Ni         179         0.065995   0.188199   0.937050   x 
            x  Ni         180         0.442244   0.062225   0.190012   x 
            x  Ni         181         0.443327   0.314610   0.940205   x 
            x  Ni         182         0.444775   0.190484   0.068495   x 
            x  Ni         183         0.068400   0.561916   0.054864   x 
            x  Ni         184         0.195239   0.441888   0.059371   x 
            x  Ni         185         0.067178   0.437182   0.931708   x 
            x  Ni         186         0.444317   0.440651   0.064434   x 
            x  Ni         187         0.444397   0.563623   0.936786   x 
            x  Ni         188         0.320995   0.439195   0.936946   x 
            x  Ni         189         0.066273   0.811949   0.054462   x 
            x  Ni         190         0.320490   0.687174   0.935454   x 
            x  Ni         191         0.446032   0.686524   0.063012   x 
            x  Ni         192         0.446981   0.811812   0.936464   x 
            xxxxxxxxxxxxxxxxxxxxxxxxxxxxxxxxxxxxxxxxxxxxxxxxxxxxxxxxxxxx
 
 
                         No user defined ionic velocities
 
                           -------------------------------
                                   Details of Species
                           -------------------------------
 
                               Mass of species in AMU
                                    Al   26.9815400
                                    Ni   58.6934000
 
                          Electric Quadrupole Moment (Barn)
                                    Al    0.1466000 Isotope 27
                                    Ni    0.1620000 Isotope 61
 
                          Files used for pseudopotentials:
                                    Al 3|2.2|2.2|1.4|4|5|5|30:31:32U2U2
                                    Ni 3|2.4|2.4|1.0|8|9|10|40:41:32U2U2(qc=5.5)
 
                           -------------------------------
                              k-Points For BZ Sampling
                           -------------------------------
                       MP grid size for SCF calculation is  1  1  1
                            with an offset of   0.000  0.000  0.000
                       Number of kpoints used =             1
 
                           -------------------------------
                               Symmetry and Constraints
                           -------------------------------
 
                      Maximum deviation from symmetry =  0.00000         ANG
 
                      Number of symmetry operations   =           1
                      Number of ionic constraints     =           3
                      Point group of crystal =     1: C1, 1, 1
                      Space group of crystal =     1: P1, P 1
 
             Set iprint > 1 for details on symmetry rotations/translations
 
                         Centre of mass is constrained
             Set iprint > 1 for details of linear ionic constraints
 
                         Number of cell constraints= 6
                         Cell constraints are:  0 0 0 0 0 0
 
                         External pressure/stress (GPa)
                          0.00000   0.00000   0.00000
                                    0.00000   0.00000
                                              0.00000
  
+---------------- MEMORY AND SCRATCH DISK ESTIMATES PER PROCESS --------------+
|                                                     Memory          Disk    |
| Baseline code, static data and system overhead      622.0 MB         0.0 MB |
| BLAS internal memory storage                          0.0 MB         0.0 MB |
| Model and support data                              741.5 MB         0.0 MB |
| Electronic energy minimisation requirements         236.0 MB         0.0 MB |
| Force calculation requirements                        7.9 MB         0.0 MB |
|                                               ----------------------------- |
| Approx. total storage required per process         1599.5 MB         0.0 MB |
|                                                                             |
| Requirements will fluctuate during execution and may exceed these estimates |
+-----------------------------------------------------------------------------+
Calculating total energy with cut-off of  900.000 eV.
------------------------------------------------------------------------ <-- SCF
SCF loop      Energy           Fermi           Energy gain       Timer   <-- SCF
                               energy          per atom          (sec)   <-- SCF
------------------------------------------------------------------------ <-- SCF
Initial  -2.19126094E+005  0.00000000E+000                        20.30  <-- SCF
      1  -2.63656534E+005  7.13609240E+000   1.74629176E+002     106.72  <-- SCF
      2  -2.70652636E+005  3.64697903E+000   2.74356958E+001     190.13  <-- SCF
      3  -2.71370520E+005  3.53658269E+000   2.81522969E+000     275.73  <-- SCF
      4  -2.71426806E+005  3.64628902E+000   2.20732597E-001     353.88  <-- SCF
      5  -2.71710891E+005  6.62190958E+000   1.11405784E+000     453.59  <-- SCF
      6  -2.71508878E+005  5.53640354E+000  -7.92208140E-001     564.93  <-- SCF
      7  -2.71402066E+005  4.52609046E+000  -4.18870699E-001     666.42  <-- SCF
      8  -2.71387224E+005  4.41131988E+000  -5.82043419E-002     771.32  <-- SCF
      9  -2.71400257E+005  4.48556871E+000   5.11094566E-002     869.53  <-- SCF
     10  -2.71397834E+005  4.45065947E+000  -9.50169813E-003     972.70  <-- SCF
     11  -2.72303368E+005  6.21403468E+000   3.55111383E+000    1079.15  <-- SCF
     12  -2.72317299E+005  6.17197429E+000   5.46302413E-002    1167.30  <-- SCF
     13  -2.71492138E+005  4.80825048E+000  -3.23592376E+000    1297.54  <-- SCF
     14  -2.71570866E+005  4.80051924E+000   3.08738060E-001    1383.89  <-- SCF
     15  -2.71427449E+005  4.27547742E+000  -5.62421456E-001    1496.28  <-- SCF
     16  -2.71396013E+005  4.20680254E+000  -1.23276556E-001    1595.85  <-- SCF
     17  -2.71391183E+005  4.25721171E+000  -1.89428963E-002    1690.39  <-- SCF
     18  -2.71389482E+005  4.31629722E+000  -6.67160768E-003    1785.87  <-- SCF
     19  -2.71387434E+005  4.35231968E+000  -8.03144850E-003    1883.46  <-- SCF
     20  -2.71386351E+005  4.34893347E+000  -4.24665121E-003    1981.36  <-- SCF
     21  -2.71386061E+005  4.34271173E+000  -1.13682160E-003    2077.68  <-- SCF
     22  -2.71385907E+005  4.33820543E+000  -6.03517271E-004    2173.92  <-- SCF
     23  -2.71385776E+005  4.34686753E+000  -5.14867269E-004    2270.76  <-- SCF
     24  -2.71385674E+005  4.35591582E+000  -3.96863731E-004    2365.25  <-- SCF
     25  -2.71385631E+005  4.36098034E+000  -1.68706914E-004    2460.34  <-- SCF
     26  -2.71385525E+005  4.36574236E+000  -4.18835917E-004    2557.47  <-- SCF
     27  -2.71385461E+005  4.36764312E+000  -2.51213009E-004    2656.89  <-- SCF
     28  -2.71385449E+005  4.36922168E+000  -4.44988811E-005    2754.64  <-- SCF
     29  -2.71385436E+005  4.37310529E+000  -5.16219199E-005    2851.18  <-- SCF
     30  -2.71385432E+005  4.37399704E+000  -1.53669130E-005    2944.82  <-- SCF
     31  -2.71385433E+005  4.37426451E+000   1.81044575E-006    3015.56  <-- SCF
     32  -2.71385432E+005  4.37451117E+000  -1.17546587E-006    3081.80  <-- SCF
     33  -2.71385432E+005  4.37467222E+000  -1.60937561E-006    3149.90  <-- SCF
     34  -2.71385432E+005  4.37483425E+000   4.36006478E-007    3213.97  <-- SCF
     35  -2.71385432E+005  4.37472749E+000  -3.25630389E-007    3276.88  <-- SCF
------------------------------------------------------------------------ <-- SCF
 
Integrated Spin Density     =    0.136805     hbar/2                        
Integrated |Spin Density|   =    0.212306     hbar/2                        
 
Final energy, E             =  -271380.8713570     eV
Final free energy (E-TS)    =  -271385.4319280     eV
(energies not corrected for finite basis set)
 
NB est. 0K energy (E-0.5TS)      =  -271383.1516425     eV
 

Writing analysis data to castep.castep_bin

Writing model to castep.check
 
+---------------- MEMORY AND SCRATCH DISK ESTIMATES PER PROCESS --------------+
|                                                     Memory          Disk    |
| Model and support data                              750.6 MB         0.0 MB |
| Electronic energy minimisation requirements         236.0 MB         0.0 MB |
| Geometry minimisation requirements                  309.4 MB         0.0 MB |
|                                               ----------------------------- |
| Approx. total storage required per process         1296.0 MB         0.0 MB |
|                                                                             |
| Requirements will fluctuate during execution and may exceed these estimates |
+-----------------------------------------------------------------------------+
 
 
 ************************************** Forces **************************************
 *                                                                                  *
 *                           Cartesian components (eV/A)                            *
 * -------------------------------------------------------------------------------- *
 *                         x                    y                    z              *
 *                                                                                  *
 * Al              1     -0.11643              0.00128             -0.01617         *
 * Al              2      0.03085             -0.03542             -0.00649         *
 * Al              3     -0.04602             -0.01670             -0.01213         *
 * Al              4      0.05784              0.00185              0.01071         *
 * Al              5     -0.08859             -0.01712             -0.11021         *
 * Al              6      0.09657              0.02096              0.00268         *
 * Al              7     -0.15974              0.04417             -0.02582         *
 * Al              8      0.06193              0.01475             -0.02400         *
 * Al              9     -0.04238              0.00774              0.00275         *
 * Al             10      0.05491              0.01839             -0.02556         *
 * Al             11     -0.11816              0.01710             -0.01168         *
 * Al             12      0.09381             -0.00102             -0.01669         *
 * Al             13      0.09476             -0.02311             -0.02276         *
 * Al             14      0.04675             -0.03498             -0.03416         *
 * Al             15     -0.02434             -0.00576             -0.12679         *
 * Al             16      0.07771              0.01534             -0.02562         *
 * Al             17     -0.17575             -0.01868              0.00274         *
 * Al             18      0.05255              0.01800             -0.00018         *
 * Al             19     -0.09275             -0.02707              0.02984         *
 * Al             20      0.06964              0.01723             -0.01467         *
 * Al             21     -0.02154              0.00121              0.10858         *
 * Al             22      0.11043             -0.00903              0.00088         *
 * Al             23      0.02553              0.02227              0.14123         *
 * Al             24      0.02674             -0.01361             -0.01778         *
 * Al             25     -0.11511             -0.06153             -0.00817         *
 * Al             26     -0.00073             -0.01868              0.00954         *
 * Al             27     -0.11993              0.01400              0.00619         *
 * Al             28      0.06778              0.02907             -0.00878         *
 * Al             29     -0.14527              0.04835              0.01246         *
 * Al             30      0.04722             -0.00130              0.01165         *
 * Al             31     -0.17875              0.01675              0.01516         *
 * Al             32      0.09145             -0.03186              0.03085         *
 * Al             33      0.13549              0.08776              0.15489         *
 * Al             34      0.29011              0.19928              0.29254         *
 * Al             35     -0.03694             -0.00648             -0.07660         *
 * Al             36      0.15478              0.06189              0.19321         *
 * Al             37     -0.04433             -0.28976             -0.06186         *
 * Al             38      0.05732              0.06313              0.18319         *
 * Al             39     -0.55046             -0.29887              0.51758         *
 * Al             40      0.13327             -0.19871             -0.03802         *
 * Al             41     -0.79176             -0.03399              0.64816         *
 * Al             42      0.20072              0.28319             -0.06215         *
 * Al             43      0.00205             -0.10388             -0.13043         *
 * Al             44      0.15232             -0.17184             -0.21293         *
 * Al             45     -0.04191              0.01618              0.17772         *
 * Al             46     -0.14223              0.08779             -0.13021         *
 * Al             47     -0.65350             -0.08908              0.01957         *
 * Al             48     -0.21997             -0.18750             -0.02581         *
 * Al             49     -0.01851              0.16277              0.12210         *
 * Al             50     -0.27430              0.02538             -0.03154         *
 * Al             51     -0.52208             -0.09975             -0.65859         *
 * Al             52     -0.15577             -0.12855              0.03636         *
 * Al             53     -0.62489             -0.02990             -0.64921         *
 * Al             54      0.20147             -0.09099             -0.29722         *
 * Al             55      0.03377              0.46103              0.02328         *
 * Al             56      0.29057             -0.07923              0.01413         *
 * Al             57     -0.27122             -0.18791             -0.10021         *
 * Al             58     -0.08870              0.01981              0.13759         *
 * Al             59     -0.04014             -0.07094             -0.11810         *
 * Al             60     -0.09816             -0.02452             -0.02152         *
 * Al             61      0.00939              0.03457              0.00453         *
 * Al             62     -0.16245             -0.01733              0.25724         *
 * Al             63     -0.16710              0.17980             -0.10198         *
 * Ni              1      0.01622              0.00737             -0.07233         *
 * Ni              2      0.00619             -0.01417              0.01152         *
 * Ni              3      0.04004              0.01361             -0.00848         *
 * Ni              4      0.09165             -0.01532             -0.01082         *
 * Ni              5      0.10857             -0.07194             -0.08964         *
 * Ni              6      0.07293              0.02819             -0.09708         *
 * Ni              7      0.10780              0.02161              0.12398         *
 * Ni              8      0.08713             -0.02544             -0.00374         *
 * Ni              9     -0.02342              0.01198              0.01109         *
 * Ni             10      0.02243              0.00599              0.03080         *
 * Ni             11      0.30059             -0.04635             -0.07855         *
 * Ni             12      0.12930              0.15580             -0.06695         *
 * Ni             13      0.10109             -0.04686              0.18374         *
 * Ni             14     -0.03676              0.00608             -0.00463         *
 * Ni             15     -0.06880             -0.01994              0.02287         *
 * Ni             16     -0.00932              0.01692             -0.01723         *
 * Ni             17      0.12504              0.17003              0.03165         *
 * Ni             18      0.12596             -0.02297             -0.14146         *
 * Ni             19      0.01338             -0.02771              0.10387         *
 * Ni             20      0.06251              0.01993              0.00113         *
 * Ni             21     -0.00337             -0.00300             -0.00835         *
 * Ni             22      0.02544              0.00314             -0.01767         *
 * Ni             23      0.19089             -0.02956             -0.04366         *
 * Ni             24      0.02203             -0.16840             -0.15916         *
 * Ni             25      0.14502              0.04043              0.00736         *
 * Ni             26      0.10818              0.04083              0.00024         *
 * Ni             27      0.02052             -0.00376             -0.00312         *
 * Ni             28      0.02114              0.02029             -0.05186         *
 * Ni             29      0.07452              0.04705              0.01840         *
 * Ni             30      0.17876             -0.08664             -0.11907         *
 * Ni             31      0.17845              0.13087             -0.13818         *
 * Ni             32      0.07012             -0.04450              0.01556         *
 * Ni             33     -0.03576              0.04385             -0.00363         *
 * Ni             34     -0.01509             -0.06273             -0.02677         *
 * Ni             35      0.22382              0.00654             -0.00745         *
 * Ni             36      0.25912              0.11276              0.06854         *
 * Ni             37      0.20048              0.03694             -0.07383         *
 * Ni             38      0.04789             -0.01533              0.01407         *
 * Ni             39     -0.10012             -0.02061              0.01486         *
 * Ni             40     -0.00429             -0.03369             -0.02289         *
 * Ni             41      0.43211              0.01383             -0.04830         *
 * Ni             42      0.25083              0.06548             -0.04234         *
 * Ni             43      0.10593             -0.14899             -0.00224         *
 * Ni             44      0.09676              0.00592             -0.00532         *
 * Ni             45     -0.03149             -0.01574              0.02226         *
 * Ni             46      0.01900              0.06178             -0.00962         *
 * Ni             47     -0.04377              0.09947              0.09810         *
 * Ni             48     -0.07200             -0.17604             -0.10339         *
 * Ni             49      0.14494             -0.05718              0.07286         *
 * Ni             50      0.03178             -0.02514             -0.00358         *
 * Ni             51      0.04886              0.00276              0.00334         *
 * Ni             52      0.07065             -0.01181              0.00625         *
 * Ni             53     -0.08048             -0.22935             -0.06720         *
 * Ni             54     -0.12483             -0.03930             -0.20021         *
 * Ni             55      0.12462              0.05806             -0.11916         *
 * Ni             56      0.03553              0.02208             -0.00975         *
 * Ni             57     -0.04650              0.01020             -0.01226         *
 * Ni             58     -0.01397              0.02455             -0.03837         *
 * Ni             59     -0.02531              0.21979             -0.01513         *
 * Ni             60      0.15472             -0.10541             -0.05975         *
 * Ni             61      0.10013              0.05389             -0.14846         *
 * Ni             62      0.01448             -0.01163              0.01566         *
 * Ni             63     -0.09683             -0.00020             -0.03291         *
 * Ni             64     -0.02596              0.01080              0.00638         *
 * Ni             65      0.08325             -0.10600              0.02059         *
 * Ni             66      0.18572             -0.00290             -0.06307         *
 * Ni             67      0.09312             -0.06563             -0.11886         *
 * Ni             68      0.00698              0.00402             -0.00397         *
 * Ni             69     -0.03819             -0.02103             -0.02161         *
 * Ni             70      0.00168             -0.03167              0.00210         *
 * Ni             71     -0.20286              0.00281             -0.50172         *
 * Ni             72     -0.06553             -0.05594              0.13279         *
 * Ni             73      0.11328             -0.00352              0.04280         *
 * Ni             74      0.03085             -0.00166              0.00007         *
 * Ni             75      0.05371             -0.00897              0.00282         *
 * Ni             76      0.00034             -0.02634              0.04668         *
 * Ni             77      0.04691             -0.09079             -0.14623         *
 * Ni             78     -0.16118              0.02298              0.18277         *
 * Ni             79      0.13040             -0.05567              0.10773         *
 * Ni             80      0.03415              0.02030              0.01058         *
 * Ni             81      0.00291              0.02094             -0.00349         *
 * Ni             82      0.00286             -0.01056              0.00564         *
 * Ni             83     -0.00178             -0.02870             -0.18073         *
 * Ni             84     -0.00173             -0.00328             -0.16652         *
 * Ni             85      0.14547             -0.00591              0.03857         *
 * Ni             86      0.01232              0.00453             -0.01477         *
 * Ni             87     -0.01510             -0.00860             -0.00596         *
 * Ni             88     -0.04824              0.02805              0.02726         *
 * Ni             89      0.14609              0.13594             -0.13630         *
 * Ni             90     -0.21629             -0.38158             -0.15721         *
 * Ni             91      0.13374              0.06214             -0.01174         *
 * Ni             92      0.01733             -0.03216              0.01101         *
 * Ni             93      0.00242             -0.00311             -0.02717         *
 * Ni             94      0.01505              0.01417              0.01176         *
 * Ni             95     -0.10680             -0.10605              0.08291         *
 * Ni             96     -0.34589              0.22626             -0.13041         *
 * Ni             97     -0.14761              0.37651              0.13001         *
 * Ni             98      0.03765             -0.14150              0.17464         *
 * Ni             99      0.08299              0.31343              0.18656         *
 * Ni            100      0.07512              0.05219              0.21377         *
 * Ni            101     -0.22864              0.01909             -0.02836         *
 * Ni            102      0.01320             -0.16122              0.06910         *
 * Ni            103      0.09577             -0.02174              0.01960         *
 * Ni            104      0.20721             -0.28271              0.49366         *
 * Ni            105      0.08031             -0.18675              0.10852         *
 * Ni            106      0.26381             -0.26828             -0.05246         *
 * Ni            107     -0.13946             -0.00918             -0.16374         *
 * Ni            108     -0.11460             -0.02908              0.07293         *
 * Ni            109      0.12648             -0.00164              0.07534         *
 * Ni            110     -0.13319             -0.16679              0.16525         *
 * Ni            111     -0.23261              0.01109             -0.02649         *
 * Ni            112      0.05588             -0.14516             -0.01378         *
 * Ni            113      0.27523              0.21640             -0.06523         *
 * Ni            114      0.11487              0.08685             -0.00793         *
 * Ni            115     -0.10863              0.01966              0.15183         *
 * Ni            116      0.13470              0.24228              0.18983         *
 * Ni            117      0.05143              0.11278              0.05656         *
 * Ni            118      0.13344              0.01180              0.13613         *
 * Ni            119      0.15292              0.12496              0.03082         *
 * Ni            120     -0.07465             -0.01486             -0.26057         *
 * Ni            121     -0.10457             -0.08485              0.24463         *
 * Ni            122     -0.17465             -0.05157              0.15348         *
 * Ni            123     -0.01463              0.18825             -0.14531         *
 * Ni            124      0.09576              0.05959             -0.04541         *
 * Ni            125      0.22694              0.31137             -0.07540         *
 * Ni            126     -0.23546             -0.10512              0.09490         *
 * Ni            127     -0.11357             -0.05248             -0.10462         *
 * Ni            128     -0.19830             -0.05840             -0.02598         *
 * Ni            129     -0.05165              0.11661             -0.15729         *
 * Ni            130     -0.01017             -0.18465             -0.16344         *
 * Ni            131     -0.13668             -0.12634              0.09642         *
 * Ni            132      0.10325             -0.08348              0.05263         *
 * Ni            133      0.14098             -0.06493              0.07421         *
 * Ni            134      0.12864              0.01634             -0.07981         *
 * Ni            135     -0.22490              0.08851              0.28246         *
 * Ni            136     -0.23891              0.08373             -0.13125         *
 * Ni            137     -0.25474             -0.33072             -0.01734         *
 * Ni            138      0.07976              0.15537              0.07939         *
 * Ni            139     -0.05290              0.03891             -0.06901         *
 * Ni            140      0.09017              0.01463              0.01753         *
 * Ni            141     -0.10435             -0.03667              0.17616         *
 * Ni            142      0.17627              0.01911             -0.11279         *
 * Ni            143      0.31210              0.15647             -0.24808         *
 * Ni            144     -0.08198             -0.01610              0.05514         *
 * Ni            145      0.17914              0.04609             -0.11824         *
 * Ni            146     -0.32666             -0.10522              0.10058         *
 * Ni            147      0.00872             -0.02563              0.07954         *
 * Ni            148      0.19499              0.09911             -0.00326         *
 * Ni            149      0.13779             -0.04864             -0.16085         *
 * Ni            150     -0.00308             -0.11000              0.24523         *
 * Ni            151     -0.33150             -0.04136             -0.00675         *
 * Ni            152     -0.03436             -0.04049             -0.13081         *
 * Ni            153     -0.01636              0.07252             -0.04852         *
 * Ni            154      0.13544              0.24198              0.07083         *
 * Ni            155      0.00462             -0.10624              0.04528         *
 * Ni            156     -0.01754             -0.09433             -0.24618         *
 * Ni            157      0.24583              0.06397             -0.20672         *
 * Ni            158     -0.19016              0.10795              0.22593         *
 * Ni            159     -0.17636             -0.00712              0.08968         *
 * Ni            160     -0.21407              0.22290              0.19102         *
 * Ni            161     -0.04473              0.07693              0.10309         *
 * Ni            162      0.00668             -0.13040              0.08054         *
 * Ni            163     -0.02045              0.07063              0.25118         *
 * Ni            164      0.30498             -0.12226             -0.06542         *
 * Ni            165     -0.31642              0.04013              0.15657         *
 * Ni            166     -0.12242             -0.00836             -0.01284         *
 * Ni            167     -0.08138             -0.11521              0.18801         *
 * Ni            168     -0.18616              0.15472              0.25443         *
 * Ni            169     -0.02628             -0.13591             -0.04850         *
 * Ni            170      0.04264              0.30508             -0.03621         *
 * Ni            171      0.27538              0.11434              0.31550         *
 * Ni            172      0.26707             -0.15302              0.02602         *
 * Ni            173     -0.29314              0.27203             -0.07680         *
 * Ni            174     -0.06015              0.00532              0.08124         *
 * Ni            175      0.01973             -0.05404              0.00414         *
 * Ni            176     -0.03377             -0.06292              0.18298         *
 * Ni            177      0.07067             -0.01538             -0.18465         *
 * Ni            178      0.06847              0.08271             -0.23731         *
 * Ni            179      0.31288             -0.10499              0.02995         *
 * Ni            180     -0.04922              0.09406             -0.06219         *
 * Ni            181     -0.10413             -0.08087              0.00124         *
 * Ni            182     -0.16320             -0.16937             -0.10961         *
 * Ni            183      0.02035              0.12413              0.33223         *
 * Ni            184     -0.14706              0.15750              0.00238         *
 * Ni            185      0.11198             -0.04380              0.00255         *
 * Ni            186     -0.01585             -0.10585             -0.13391         *
 * Ni            187     -0.06878             -0.09993             -0.18699         *
 * Ni            188      0.05629              0.18955             -0.07637         *
 * Ni            189     -0.06896              0.11698              0.29758         *
 * Ni            190      0.12013             -0.01336             -0.21326         *
 * Ni            191     -0.05160              0.02736             -0.09782         *
 * Ni            192      0.07980              0.02987             -0.18136         *
 *                                                                                  *
 ************************************************************************************
 LBFGS: finished iteration     0 with enthalpy= -2.71385432E+005 eV
  
 +-----------+-----------------+-----------------+------------+-----+ <-- LBFGS
 | Parameter |      value      |    tolerance    |    units   | OK? | <-- LBFGS
 +-----------+-----------------+-----------------+------------+-----+ <-- LBFGS
 |  dE/ion   |   0.000000E+000 |   2.000000E-005 |         eV | No  | <-- LBFGS
 |  |F|max   |   1.023792E+000 |   5.000000E-002 |       eV/A | No  | <-- LBFGS
 |  |dR|max  |   0.000000E+000 |   1.000000E-003 |          A | No  | <-- LBFGS
 +-----------+-----------------+-----------------+------------+-----+ <-- LBFGS
  

================================================================================
 Starting LBFGS iteration          1 ...
================================================================================
  
 +------------+-------------+-------------+-----------------+ <-- min LBFGS
 |    Step    |   lambda    |   F.delta'  |    enthalpy     | <-- min LBFGS
 +------------+-------------+-------------+-----------------+ <-- min LBFGS
 |  previous  |    0.000000 |    2.053939 |  -271385.431928 | <-- min LBFGS
 +------------+-------------+-------------+-----------------+ <-- min LBFGS
  

--------------------------------------------------------------------------------
 LBFGS: starting iteration         1 with trial guess (lambda=  1.000000)
--------------------------------------------------------------------------------
 
                           -------------------------------
                                     Cell Contents
                           -------------------------------
 
            xxxxxxxxxxxxxxxxxxxxxxxxxxxxxxxxxxxxxxxxxxxxxxxxxxxxxxxxxxxxxxxxx
            x  Element         Atom        Fractional coordinates of atoms  x
            x                 Number           u          v          w      x
            x---------------------------------------------------------------x
            x  Al                1         0.570585   0.937923   0.188750   x
            x  Al                2         0.818105   0.938928   0.187430   x
            x  Al                3         0.569926   0.189782   0.189376   x
            x  Al                4         0.817847   0.188677   0.187665   x
            x  Al                5         0.573387   0.440013   0.185671   x
            x  Al                6         0.819339   0.438227   0.186799   x
            x  Al                7         0.571298   0.687253   0.188473   x
            x  Al                8         0.819423   0.688591   0.186750   x
            x  Al                9         0.569900   0.936403   0.435635   x
            x  Al               10         0.817717   0.938798   0.437391   x
            x  Al               11         0.568922   0.190303   0.435192   x
            x  Al               12         0.817403   0.188685   0.437495   x
            x  Al               13         0.576316   0.440742   0.437749   x
            x  Al               14         0.819272   0.438299   0.437633   x
            x  Al               15         0.573853   0.686981   0.433475   x
            x  Al               16         0.819422   0.688467   0.437336   x
            x  Al               17         0.572626   0.936532   0.686559   x
            x  Al               18         0.816829   0.939464   0.687284   x
            x  Al               19         0.569558   0.189825   0.686106   x
            x  Al               20         0.816420   0.188363   0.687238   x
            x  Al               21         0.572992   0.439155   0.689252   x
            x  Al               22         0.818865   0.437707   0.688146   x
            x  Al               23         0.576727   0.687102   0.692820   x
            x  Al               24         0.819096   0.688422   0.688019   x
            x  Al               25         0.571714   0.938358   0.939127   x
            x  Al               26         0.817292   0.939535   0.937918   x
            x  Al               27         0.568912   0.189377   0.939694   x
            x  Al               28         0.817152   0.188371   0.937628   x
            x  Al               29         0.570084   0.438348   0.938189   x
            x  Al               30         0.818903   0.437599   0.937648   x
            x  Al               31         0.571797   0.687484   0.937201   x
            x  Al               32         0.819404   0.688656   0.938183   x
            x  Al               33         0.328768   0.811732   0.059228   x
            x  Al               34         0.056563   0.686576   0.931827   x
            x  Al               35         0.192861   0.819060   0.929670   x
            x  Al               36         0.321769   0.564643   0.064634   x
            x  Al               37         0.193282   0.559039   0.928974   x
            x  Al               38         0.318105   0.320541   0.068915   x
            x  Al               39         0.074307   0.318708   0.054045   x
            x  Al               40         0.198004   0.818269   0.697153   x
            x  Al               41         0.069395   0.435308   0.687078   x
            x  Al               42         0.325461   0.314519   0.812200   x
            x  Al               43         0.194119   0.297255   0.685738   x
            x  Al               44         0.331165   0.058147   0.809735   x
            x  Al               45         0.327704   0.186028   0.944829   x
            x  Al               46         0.190471   0.062425   0.681377   x
            x  Al               47         0.063101   0.065666   0.813250   x
            x  Al               48         0.317590   0.692439   0.436461   x
            x  Al               49         0.440736   0.688158   0.569061   x
            x  Al               50         0.185949   0.685201   0.309440   x
            x  Al               51         0.067584   0.815039   0.565785   x
            x  Al               52         0.429296   0.440781   0.556705   x
            x  Al               53         0.072395   0.574761   0.565448   x
            x  Al               54         0.208159   0.437981   0.548097   x
            x  Al               55         0.325575   0.192157   0.432644   x
            x  Al               56         0.329945   0.056274   0.562163   x
            x  Al               57         0.184608   0.052749   0.435773   x
            x  Al               58         0.186995   0.815845   0.181414   x
            x  Al               59         0.429177   0.442581   0.318765   x
            x  Al               60         0.193943   0.441332   0.315296   x
            x  Al               61         0.190972   0.055889   0.179286   x
            x  Al               62         0.192159   0.057745   0.946839   x
            x  Al               63         0.184149   0.194927   0.305076   x
            x  Ni                1         0.568024   0.062850   0.312149   x
            x  Ni                2         0.694191   0.938180   0.312369   x
            x  Ni                3         0.693652   0.063969   0.188285   x
            x  Ni                4         0.817688   0.064114   0.312650   x
            x  Ni                5         0.942113   0.939112   0.312369   x
            x  Ni                6         0.942229   0.063997   0.187337   x
            x  Ni                7         0.567216   0.318871   0.311907   x
            x  Ni                8         0.692579   0.189725   0.312620   x
            x  Ni                9         0.694341   0.313860   0.187630   x
            x  Ni               10         0.818742   0.313318   0.312413   x
            x  Ni               11         0.942417   0.188550   0.312433   x
            x  Ni               12         0.942790   0.313115   0.187101   x
            x  Ni               13         0.567844   0.560616   0.311807   x
            x  Ni               14         0.696115   0.439102   0.311766   x
            x  Ni               15         0.695506   0.563680   0.186844   x
            x  Ni               16         0.820021   0.563459   0.311873   x
            x  Ni               17         0.942991   0.438054   0.312180   x
            x  Ni               18         0.943401   0.563203   0.186808   x
            x  Ni               19         0.568942   0.812676   0.311559   x
            x  Ni               20         0.695457   0.687549   0.311311   x
            x  Ni               21         0.694304   0.813051   0.187261   x
            x  Ni               22         0.818803   0.813516   0.312026   x
            x  Ni               23         0.943116   0.688663   0.312084   x
            x  Ni               24         0.942833   0.814079   0.187089   x
            x  Ni               25         0.449731   0.061624   0.685748   x
            x  Ni               26         0.692523   0.937679   0.561215   x
            x  Ni               27         0.692511   0.063737   0.436810   x
            x  Ni               28         0.816617   0.064008   0.562172   x
            x  Ni               29         0.941703   0.939231   0.562663   x
            x  Ni               30         0.941879   0.063932   0.437590   x
            x  Ni               31         0.566298   0.317845   0.561813   x
            x  Ni               32         0.691206   0.189457   0.561331   x
            x  Ni               33         0.694048   0.313910   0.437292   x
            x  Ni               34         0.817983   0.313136   0.562663   x
            x  Ni               35         0.941954   0.188463   0.562700   x
            x  Ni               36         0.942603   0.313188   0.437641   x
            x  Ni               37         0.566997   0.563467   0.563534   x
            x  Ni               38         0.695005   0.439301   0.563210   x
            x  Ni               39         0.696396   0.563941   0.437372   x
            x  Ni               40         0.819813   0.563376   0.562939   x
            x  Ni               41         0.942900   0.437927   0.562898   x
            x  Ni               42         0.943175   0.563247   0.437485   x
            x  Ni               43         0.569153   0.808930   0.562361   x
            x  Ni               44         0.694569   0.687217   0.562659   x
            x  Ni               45         0.694754   0.812629   0.436890   x
            x  Ni               46         0.818402   0.813517   0.562346   x
            x  Ni               47         0.943033   0.688696   0.562845   x
            x  Ni               48         0.942398   0.813955   0.437421   x
            x  Ni               49         0.568211   0.063958   0.812634   x
            x  Ni               50         0.693319   0.939144   0.813021   x
            x  Ni               51         0.691526   0.063984   0.686556   x
            x  Ni               52         0.816722   0.064225   0.812458   x
            x  Ni               53         0.941909   0.939549   0.812468   x
            x  Ni               54         0.941546   0.064053   0.687480   x
            x  Ni               55         0.566968   0.313847   0.813236   x
            x  Ni               56         0.691685   0.188787   0.812756   x
            x  Ni               57         0.693170   0.313418   0.687490   x
            x  Ni               58         0.817810   0.312628   0.812743   x
            x  Ni               59         0.941984   0.188380   0.812399   x
            x  Ni               60         0.942326   0.312807   0.687767   x
            x  Ni               61         0.569659   0.562314   0.813991   x
            x  Ni               62         0.694510   0.437672   0.813626   x
            x  Ni               63         0.696158   0.562734   0.688473   x
            x  Ni               64         0.819570   0.562728   0.813351   x
            x  Ni               65         0.943041   0.437639   0.812733   x
            x  Ni               66         0.943138   0.563152   0.688023   x
            x  Ni               67         0.570959   0.812627   0.813709   x
            x  Ni               68         0.696768   0.687998   0.814492   x
            x  Ni               69         0.695662   0.813312   0.687756   x
            x  Ni               70         0.818630   0.814424   0.813226   x
            x  Ni               71         0.942850   0.688737   0.812692   x
            x  Ni               72         0.942000   0.814258   0.687745   x
            x  Ni               73         0.567998   0.064075   0.065433   x
            x  Ni               74         0.693224   0.938618   0.063584   x
            x  Ni               75         0.692113   0.064369   0.938411   x
            x  Ni               76         0.817513   0.064024   0.062693   x
            x  Ni               77         0.942441   0.939342   0.062202   x
            x  Ni               78         0.941991   0.064047   0.937338   x
            x  Ni               79         0.567824   0.314894   0.063786   x
            x  Ni               80         0.692768   0.188973   0.063482   x
            x  Ni               81         0.693007   0.313105   0.937996   x
            x  Ni               82         0.818347   0.312963   0.062305   x
            x  Ni               83         0.942419   0.188431   0.062257   x
            x  Ni               84         0.942699   0.312763   0.937316   x
            x  Ni               85         0.568603   0.563682   0.062159   x
            x  Ni               86         0.694891   0.438461   0.062021   x
            x  Ni               87         0.695073   0.562827   0.938125   x
            x  Ni               88         0.819478   0.563353   0.062124   x
            x  Ni               89         0.943162   0.437898   0.062013   x
            x  Ni               90         0.943447   0.563065   0.937431   x
[...]
             Al 36 -- Ni 187                 0.19        -0.00          2.58776
            Ni 60  -- Ni 65                  0.01        -0.00          2.58783
             Al 59 -- Ni 108                 0.14        -0.00          2.58793
            Ni 106 -- Ni 131                 0.05         0.00          2.58811
            Ni 49  -- Ni 151                 0.08         0.00          2.58832
            Ni 47  -- Ni 48                 -0.00        -0.00          2.58838
            Ni 97  -- Ni 125                 0.09        -0.00          2.58847
            Ni 103 -- Ni 169                -0.02        -0.00          2.58859
             Al 52 -- Ni 152                 0.15        -0.00          2.58876
             Al 17 -- Ni 43                  0.19        -0.00          2.58915
            Ni 85  -- Ni 115                 0.04         0.00          2.58915
             Al 52 -- Ni 159                 0.15        -0.00          2.58916
            Ni 155 -- Ni 156                 0.06         0.00          2.58927
             Al 33 -- Ni 169                 0.18        -0.00          2.58941
             Al 9  -- Ni 127                 0.19         0.00          2.58943
            Ni 41  -- Ni 66                 -0.03         0.00          2.58954
            Ni 1   -- Ni 101                 0.04        -0.00          2.58964
             Al 15 -- Ni 37                  0.20        -0.00          2.58968
             Al 15 -- Ni 44                  0.20        -0.00          2.58991
             Al 53 -- Ni 137                 0.19         0.00          2.58996
            Ni 159 -- Ni 167                 0.10         0.00          2.59005
            Ni 110 -- Ni 136                 0.07        -0.00          2.59015
             Al 38 -- Ni 102                 0.17         0.00          2.59022
            Ni 90  -- Ni 95                  0.01        -0.00          2.59039
             Al 61 -- Ni 102                 0.16        -0.00          2.59044
             Al 40 -- Ni 124                 0.19         0.00          2.59047
            Ni 67  -- Ni 165                 0.03         0.00          2.59092
             Al 51 -- Ni 142                 0.18        -0.00          2.59092
            Ni 41  -- Ni 42                  0.04        -0.00          2.59097
            Ni 183 -- Ni 185                 0.07         0.00          2.59110
            Ni 29  -- Ni 48                  0.02        -0.00          2.59113
            Ni 105 -- Ni 132                 0.05        -0.00          2.59138
             Al 61 -- Ni 97                  0.17         0.00          2.59145
            Ni 13  -- Ni 120                 0.04        -0.00          2.59152
             Al 40 -- Ni 163                 0.17        -0.00          2.59152
            Ni 25  -- Ni 147                 0.08         0.00          2.59156
            Ni 151 -- Ni 174                -0.05         0.00          2.59163
             Al 19 -- Ni 151                 0.20        -0.00          2.59171
             Al 19 -- Ni 49                  0.20         0.00          2.59180
             Al 36 -- Ni 188                 0.19         0.00          2.59210
             Al 51 -- Ni 124                 0.20         0.00          2.59211
             Al 46 -- Ni 153                 0.14        -0.00          2.59211
            Ni 34  -- Ni 41                  0.07         0.00          2.59247
            Ni 55  -- Ni 181                 0.07         0.00          2.59250
            Ni 31  -- Ni 32                  0.06         0.00          2.59251
            Ni 116 -- Ni 118                 0.02        -0.00          2.59264
            Ni 121 -- Ni 191                 0.00         0.00          2.59302
            Ni 35  -- Ni 129                 0.09         0.00          2.59360
             Al 36 -- Ni 190                 0.17        -0.00          2.59408
             Al 53 -- Ni 163                 0.16         0.00          2.59433
             Al 40 -- Ni 145                 0.17        -0.00          2.59438
            Ni 37  -- Ni 38                  0.07         0.00          2.59451
             Al 58 -- Ni 117                 0.15        -0.00          2.59462
            Ni 150 -- Ni 178                 0.08         0.00          2.59488
             Al 60 -- Ni 109                 0.15        -0.00          2.59498
            Ni 159 -- Ni 160                 0.09         0.00          2.59516
            Ni 71  -- Ni 96                  0.01        -0.00          2.59521
             Al 50 -- Ni 142                 0.15        -0.00          2.59530
             Al 23 -- Ni 37                  0.19         0.00          2.59556
            Ni 169 -- Ni 171                -0.00        -0.00          2.59579
            Ni 104 -- Ni 109                 0.02        -0.00          2.59579
            Ni 155 -- Ni 157                 0.08         0.00          2.59594
            Ni 113 -- Ni 139                 0.09         0.00          2.59611
             Al 22 -- Ni 62                  0.19         0.00          2.59618
             Al 48 -- Ni 141                 0.17        -0.00          2.59639
             Al 38 -- Ni 181                 0.19        -0.00          2.59645
            Ni 117 -- Ni 122                 0.03        -0.00          2.59663
            Ni 68  -- Ni 69                  0.02         0.00          2.59684
            Ni 129 -- Ni 132                 0.12         0.00          2.59804
            Ni 25  -- Ni 151                -0.01         0.00          2.59812
             Al 41 -- Ni 129                 0.23         0.00          2.59822
            Ni 123 -- Ni 124                 0.01        -0.00          2.59845
             Al 38 -- Ni 188                 0.17        -0.00          2.59847
             Al 48 -- Ni 120                 0.18         0.00          2.59855
            Ni 152 -- Ni 160                 0.02         0.00          2.59856
             Al 45 -- Ni 150                 0.16        -0.00          2.59872
            Ni 117 -- Ni 191                 0.08         0.00          2.59873
            Ni 37  -- Ni 39                  0.01         0.00          2.59874
            Ni 142 -- Ni 143                 0.05        -0.00          2.59886
             Al 9  -- Ni 144                 0.19        -0.00          2.59888
            Ni 178 -- Ni 185                 0.08        -0.00          2.59888
            Ni 25  -- Ni 146                -0.01         0.00          2.59896
            Ni 138 -- Ni 160                 0.06         0.00          2.59899
            Ni 7   -- Ni 107                 0.03        -0.00          2.59939
             Al 3  -- Ni 108                 0.17         0.00          2.59962
             Al 34 -- Ni 162                 0.16         0.00          2.59974
             Al 60 -- Ni 105                 0.16         0.00          2.60031
            Ni 99  -- Ni 169                 0.01        -0.00          2.60062
            Ni 140 -- Ni 141                 0.06        -0.00          2.60171
            Ni 47  -- Ni 163                 0.06        -0.00          2.60184
            Ni 108 -- Ni 111                 0.02         0.00          2.60212
            Ni 126 -- Ni 128                 0.09         0.00          2.60263
            Ni 170 -- Ni 171                -0.02         0.00          2.60287
            Ni 95  -- Ni 96                  0.01        -0.00          2.60299
             Al 17 -- Ni 134                 0.18         0.00          2.60338
            Ni 100 -- Ni 107                 0.04         0.00          2.60392
            Ni 104 -- Ni 105                 0.05        -0.00          2.60413
            Ni 65  -- Ni 66                  0.02         0.00          2.60463
             Al 11 -- Ni 31                  0.19        -0.00          2.60468
            Ni 112 -- Ni 122                 0.11        -0.00          2.60488
            Ni 131 -- Ni 133                 0.12         0.00          2.60500
             Al 36 -- Ni 184                 0.19         0.00          2.60543
            Ni 7   -- Ni 8                   0.05        -0.00          2.60608
            Ni 146 -- Ni 174                 0.01         0.00          2.60617
             Al 49 -- Ni 139                 0.16         0.00          2.60628
             Al 51 -- Ni 163                 0.17        -0.00          2.60631
            Ni 71  -- Ni 90                  0.02        -0.00          2.60642
            Ni 42  -- Ni 47                 -0.01        -0.00          2.60648
            Ni 59  -- Ni 78                 -0.01        -0.00          2.60685
            Ni 26  -- Ni 43                  0.07         0.00          2.60728
            Ni 100 -- Ni 180                 0.11         0.00          2.60730
             Al 3  -- Ni 180                 0.16        -0.00          2.60732
            Ni 161 -- Ni 162                -0.00         0.00          2.60761
            Ni 121 -- Ni 173                 0.01         0.00          2.60855
             Al 61 -- Ni 100                 0.19        -0.00          2.60860
            Ni 54  -- Ni 59                  0.00        -0.00          2.60886
             Al 19 -- Ni 134                 0.18         0.00          2.60907
             Al 19 -- Ni 31                  0.19         0.00          2.60930
            Ni 53  -- Ni 54                 -0.00        -0.00          2.60957
             Al 17 -- Ni 49                  0.18         0.00          2.61017
            Ni 147 -- Ni 170                -0.03         0.00          2.61068
            Ni 13  -- Ni 20                  0.05         0.00          2.61111
             Al 38 -- Ni 177                 0.17        -0.00          2.61160
            Ni 25  -- Ni 126                -0.01         0.00          2.61248
            Ni 150 -- Ni 153                -0.02         0.00          2.61262
             Al 58 -- Ni 122                 0.17         0.00          2.61286
             Al 9  -- Ni 43                  0.19        -0.00          2.61339
            Ni 53  -- Ni 78                  0.00        -0.00          2.61393
            Ni 156 -- Ni 167                 0.11         0.00          2.61398
            Ni 158 -- Ni 181                -0.01         0.00          2.61451
            Ni 151 -- Ni 152                 0.03         0.00          2.61460
             Al 38 -- Ni 178                 0.17        -0.00          2.61501
             Al 34 -- Ni 122                 0.16        -0.00          2.61590
            Ni 169 -- Ni 172                 0.00        -0.00          2.61617
            Ni 114 -- Ni 133                 0.10         0.00          2.61644
            Ni 65  -- Ni 148                 0.05         0.00          2.61652
            Ni 152 -- Ni 153                 0.12         0.00          2.61687
            Ni 111 -- Ni 186                 0.07         0.00          2.61711
            Ni 106 -- Ni 114                 0.10         0.00          2.61797
             Al 35 -- Ni 122                 0.18         0.00          2.61799
             Al 36 -- Ni 122                 0.17         0.00          2.61871
            Ni 110 -- Ni 118                 0.04        -0.00          2.61929
             Al 63 -- Ni 100                 0.16        -0.00          2.61930
            Ni 178 -- Ni 184                 0.03        -0.00          2.61962
            Ni 143 -- Ni 167                 0.01         0.00          2.61996
            Ni 178 -- Ni 179                 0.06         0.00          2.62000
            Ni 173 -- Ni 192                 0.00         0.00          2.62108
            Ni 114 -- Ni 135                 0.06         0.00          2.62123
            Ni 172 -- Ni 177                -0.02         0.00          2.62220
            Ni 156 -- Ni 157                 0.12         0.00          2.62306
             Al 40 -- Ni 143                 0.18         0.00          2.62339
            Ni 170 -- Ni 175                -0.03         0.00          2.62374
             Al 58 -- Ni 119                 0.16        -0.00          2.62411
             Al 47 -- Ni 150                 0.18         0.00          2.62448
            Ni 130 -- Ni 153                -0.01         0.00          2.62615
            Ni 168 -- Ni 177                 0.03        -0.00          2.62704
             Al 50 -- Ni 117                 0.15        -0.00          2.62823
            Ni 102 -- Ni 109                -0.02         0.00          2.62845
             Al 23 -- Ni 166                 0.14         0.00          2.62966
            Ni 127 -- Ni 135                -0.03         0.00          2.62969
             Al 60 -- Ni 112                 0.13         0.00          2.63143
             Al 43 -- Ni 150                 0.16         0.00          2.63149
             Al 60 -- Ni 176                 0.14         0.00          2.63182
            Ni 107 -- Ni 114                 0.05        -0.00          2.63325
            Ni 136 -- Ni 141                 0.02         0.00          2.63417
             Al 39 -- Ni 178                 0.18        -0.00          2.63514
             Al 37 -- Ni 190                 0.15        -0.00          2.63521
            Ni 154 -- Ni 155                 0.06         0.00          2.63524
            Ni 155 -- Ni 188                 0.03         0.00          2.63553
            Ni 158 -- Ni 160                 0.10         0.00          2.63603
            Ni 115 -- Ni 117                 0.09         0.00          2.63610
            Ni 100 -- Ni 101                 0.08         0.00          2.63625
            Ni 102 -- Ni 108                 0.09         0.00          2.63942
             Al 61 -- Ni 104                 0.14         0.00          2.63984
            Ni 124 -- Ni 125                 0.03        -0.00          2.64031
            Ni 162 -- Ni 164                 0.01         0.00          2.64062
             Al 38 -- Ni 182                 0.16         0.00          2.64073
             Al 56 -- Ni 130                 0.15        -0.00          2.64118
             Al 50 -- Al 58                  0.24        -0.00          2.64243
             Al 43 -- Ni 155                 0.18        -0.00          2.64324
            Ni 100 -- Ni 103                 0.10         0.00          2.64382
             Al 48 -- Al 49                  0.25         0.00          2.64385
            Ni 126 -- Ni 127                 0.01         0.00          2.64471
             Al 59 -- Ni 13                  0.13        -0.00          2.64626
             Al 35 -- Ni 189                 0.15         0.00          2.64693
            Ni 156 -- Ni 162                 0.11         0.00          2.64800
             Al 48 -- Al 50                  0.24        -0.00          2.64993
             Al 56 -- Ni 124                 0.15         0.00          2.65018
             Al 23 -- Ni 159                 0.13         0.00          2.65195
             Al 50 -- Ni 119                 0.13        -0.00          2.65214
             Al 37 -- Ni 122                 0.16        -0.00          2.65251
             Al 46 -- Ni 147                 0.11         0.00          2.65716
             Al 35 -- Ni 190                 0.13         0.00          2.65730
             Al 42 -- Ni 153                 0.16         0.00          2.66076
            Ni 148 -- Ni 150                 0.08        -0.00          2.66322
             Al 33 -- Ni 122                 0.14         0.00          2.66387
             Al 23 -- Al 49                  0.24         0.00          2.66597
            Ni 129 -- Ni 130                 0.08         0.00          2.66626
             Al 38 -- Al 45                  0.23         0.00          2.66994
             Al 43 -- Ni 160                 0.14        -0.00          2.67210
             Al 13 -- Ni 139                 0.15         0.00          2.67244
             Al 42 -- Al 43                  0.24         0.00          2.67494
            Ni 161 -- Ni 170                 0.03         0.00          2.67922
             Al 54 -- Ni 129                 0.15         0.00          2.68775
            Ni 130 -- Ni 149                 0.01         0.00          2.69171
             Al 46 -- Al 56                  0.23         0.00          2.69355
             Al 52 -- Ni 31                  0.11         0.00          2.69878
            Ni 168 -- Ni 169                 0.02        -0.00          2.69886
             Al 59 -- Ni 7                   0.10         0.00          2.69980
             Al 54 -- Ni 156                 0.13        -0.00          2.71035
             Al 45 -- Al 62                  0.19         0.00          2.71075
            Ni 149 -- Ni 150                 0.00         0.00          2.71179
             Al 52 -- Ni 37                  0.11        -0.00          2.71324
             Al 61 -- Al 63                  0.20        -0.00          2.71959
             Al 46 -- Al 47                  0.21         0.00          2.72053
             Al 42 -- Al 45                  0.21         0.00          2.72109
             Al 36 -- Al 37                  0.21        -0.00          2.72999
             Al 44 -- Al 45                  0.20         0.00          2.73004
            Ni 164 -- Ni 170                 0.03         0.00          2.73119
             Al 34 -- Al 35                  0.19         0.00          2.73443
             Al 33 -- Al 58                  0.20        -0.00          2.73665
             Al 33 -- Al 35                  0.20         0.00          2.74411
             Al 34 -- Al 37                  0.19         0.00          2.74500
             Al 55 -- Al 56                  0.18         0.00          2.76358
             Al 41 -- Al 43                  0.19         0.00          2.76419
             Al 55 -- Al 63                  0.17        -0.00          2.76664
             Al 15 -- Al 49                  0.20         0.00          2.76703
             Al 13 -- Al 52                  0.22         0.00          2.76902
             Al 13 -- Al 59                  0.21         0.00          2.76908
             Al 47 -- Al 62                  0.17         0.00          2.77059
             Al 44 -- Al 46                  0.17         0.00          2.77448
             Al 41 -- Al 53                  0.20         0.00          2.77456
             Al 42 -- Ni 150                 0.11         0.00          2.77753
             Al 40 -- Al 51                  0.20         0.00          2.78299
             Al 57 -- Al 63                  0.16        -0.00          2.78992
             Al 56 -- Al 57                  0.16         0.00          2.82533
             Al 5  -- Al 59                  0.15        -0.00          2.82562
             Al 21 -- Al 52                  0.16         0.00          2.83883
             Al 53 -- Al 54                  0.14        -0.00          2.87159
             Al 43 -- Al 54                  0.12         0.00          2.88007
             Al 44 -- Al 62                  0.11         0.00          2.89943
             Al 55 -- Al 57                  0.09        -0.00          2.94024
================================================================================
 

Writing analysis data to castep.castep_bin

Writing model to castep.check
 
 A BibTeX formatted list of references used in this run has been written to 
 castep.bib
 
Initialisation time =     13.60 s
Calculation time    =  19387.57 s
Finalisation time   =     14.60 s
Total time          =  19415.77 s
Peak Memory Use     = 2355316 kB
  
Overall parallel efficiency rating: Good (72%)                                  
  
Data was distributed by:-
G-vector (48-way); efficiency rating: Good (73%)                                
