 +-------------------------------------------------+
 |                                                 |
 |      CCC   AA    SSS  TTTTT  EEEEE  PPPP        |
 |     C     A  A  S       T    E      P   P       |
 |     C     AAAA   SS     T    EEE    PPPP        |
 |     C     A  A     S    T    E      P           |
 |      CCC  A  A  SSS     T    EEEEE  P           |
 |                                                 |
 +-------------------------------------------------+
 |                                                 |
 | Welcome to Academic Release CASTEP version 22.11|
 | Ab Initio Total Energy Program                  |
 |                                                 |
 | Authors:                                        |
 | M. Segall, M. Probert, C. Pickard, P. Hasnip,   |
 | S. Clark, K. Refson, J. R. Yates, M. Payne      |
 |                                                 |
 | Contributors:                                   |
 | P. Lindan, P. Haynes, J. White, V. Milman,      |
 | N. Govind, M. Gibson, P. Tulip, V. Cocula,      |
 | B. Montanari, D. Quigley, M. Glover,            |
 | L. Bernasconi, A. Perlov, M. Plummer,           |
 | E. McNellis, J. Meyer, J. Gale, D. Jochym       |
 | J. Aarons, B. Walker, R. Gillen, D. Jones       |
 | T. Green, I. J. Bush, C. J. Armstrong,          |
 | E. J. Higgins, E. L. Brown, M. S. McFly,        |
 | J. Wilkins, B-C. Shih, P. J. P. Byrne,          |
 | R. J. Maurer, J. C. Womack, J. Dziedzic,        |
 | A. Bartok-Partay, L. LeBlanc, T. K. Stenczel,   |
 | J. Kermode, S. Sturniolo, B. Shi, B. Durham     |
 | M. Evans, M. J. Smith                           |
 |                                                 |
 | Copyright (c) 2000 - 2021                       |
 |                                                 |
 |     Distributed under license from Cambridge    |
 |     Enterprise for academic use only.           |
 |                                                 |
 | Please cite                                     |
 |                                                 |
 |     "First principles methods using CASTEP"     |
 |                                                 |
 |         Zeitschrift fuer Kristallographie       |
 |           220(5-6) pp. 567-570 (2005)           |
 |                                                 |
 | S. J. Clark, M. D. Segall, C. J. Pickard,       |
 | P. J. Hasnip, M. J. Probert, K. Refson,         |
 | M. C. Payne                                     |
 |                                                 |
 |       in all publications arising from          |
 |              your use of CASTEP                 |
 |                                                 |
 +-------------------------------------------------+
 |                                                 |
 |              http://www.castep.org              |
 |                                                 |
 +-------------------------------------------------+
 
 
 
 Compiled for linux_x86_64_ifort on Wed, 18 Jan 2023 15:42:19 +0000
 from code version b807d1bba+  Castep221_branch  Wed Sep 14 11:18:35 2022 +0100
 Compiler: Intel Fortran 19.0.5.281; Optimisation: fast
 MATHLIBS: Intel MKL(2019.0.5) (LAPACK version 3.7.0)
 FFT Lib : mkl
 Fundamental constants values: CODATA 2014
 
 Run started: Thu, 27 Apr 2023 00:31:13 +0100
 
 Atomic calculation performed for Al: 1s2 2s2 2p6 3s2 3p1
 
 Converged in 52 iterations to an ae energy of -6606.982 eV
 
   ============================================================                
   | Pseudopotential Report - Date of generation 27-04-2023   |                
   ------------------------------------------------------------                
   | Element: Al Ionic charge:  3.00 Level of theory: RPBE    |                
   | Atomic Solver: Koelling-Harmon                           |                
   |                                                          |                
   |               Reference Electronic Structure             |                
   |         Orbital         Occupation         Energy        |                
   |            3s              2.000           -0.284        |                
   |            3p              1.000           -0.100        |                
   |                                                          |                
   |                 Pseudopotential Definition               |                
   |        Beta     l      e      Rc     scheme   norm       |                
   |          1      0   -0.284   2.192     qc      0         |                
   |          2      0    0.250   2.192     qc      0         |                
   |          3      1   -0.100   2.192     qc      0         |                
   |          4      1    0.250   2.192     qc      0         |                
   |          5      2    0.000   2.000     qc      0         |                
   |          6      2    0.250   2.000     qc      0         |                
   |         loc     3    0.000   2.192     pn      0         |                
   |                                                          |                
   | Augmentation charge Rinner = 1.398                       |                
   | Partial core correction Rc = 1.398                       |                
   ------------------------------------------------------------                
   | "3|2.2|2.2|1.4|4|5|5|30:31:32U2U2"                       |                
   ------------------------------------------------------------                
   |      Author: Chris J. Pickard, Cambridge University      |                
   ============================================================                
 
 Atomic calculation performed for Ni: 1s2 2s2 2p6 3s2 3p6 3d8 4s2
 
 Converged in 109 iterations to an ae energy of -41381.414 eV
 
   ============================================================                
   | Pseudopotential Report - Date of generation 27-04-2023   |                
   ------------------------------------------------------------                
   | Element: Ni Ionic charge: 10.00 Level of theory: RPBE    |                
   | Atomic Solver: Koelling-Harmon                           |                
   |                                                          |                
   |               Reference Electronic Structure             |                
   |         Orbital         Occupation         Energy        |                
   |            3d              8.000           -0.324        |                
   |            4s              2.000           -0.204        |                
   |                                                          |                
   |                 Pseudopotential Definition               |                
   |        Beta     l      e      Rc     scheme   norm       |                
   |          1      0   -0.204   2.401     qc      0         |                
   |          2      0    0.250   2.401     qc      0         |                
   |          3      1    0.000   2.401     qc      0         |                
   |          4      1    0.250   2.401     qc      0         |                
   |          5      2   -0.324   1.999     qc      0         |                
   |          6      2    0.250   1.999     qc      0         |                
   |         loc     3    0.000   2.401     pn      0         |                
   |                                                          |                
   | Augmentation charge Rinner = 1.001                       |                
   | Partial core correction Rc = 1.001                       |                
   ------------------------------------------------------------                
   | "3|2.4|2.4|1.0|8|9|10|40:41:32U2U2(qc=5.5)"              |                
   ------------------------------------------------------------                
   |      Author: Chris J. Pickard, Cambridge University      |                
   ============================================================                
 
 Pseudo atomic calculation performed for Al 3s2 3p1
 
 Converged in 13 iterations to a total energy of -107.6593 eV
 
 Pseudo atomic calculation performed for Ni 3d8 4s2
 
 Converged in 41 iterations to a total energy of -1369.7890 eV
 Calculation parallelised over 128 processes.
 Data is distributed by G-vector(128-way)

 ************************************ Title ************************************
 

 ***************************** General Parameters ******************************
  
 output verbosity                               : normal  (1)
 write checkpoint data to                       : castep.check
 type of calculation                            : geometry optimization
 stress calculation                             : off
 density difference calculation                 : off
 electron localisation func (ELF) calculation   : off
 Hirshfeld analysis                             : off
 polarisation (Berry phase) analysis            : off
 molecular orbital projected DOS                : off
 deltaSCF calculation                           : off
 unlimited duration calculation
 timing information                             : on
 memory usage estimate                          : on
 write extra output files                       : on
 write final potential to formatted file        : off
 write final density to formatted file          : off
 write BibTeX reference list                    : on
 write OTFG pseudopotential files               : on
 write electrostatic potential file             : on
 write bands file                               : on
 checkpoint writing                             : both castep_bin and check files
  
 output         length unit                     : A
 output           mass unit                     : amu
 output           time unit                     : ps
 output         charge unit                     : e
 output           spin unit                     : hbar/2
 output         energy unit                     : eV
 output          force unit                     : eV/A
 output       velocity unit                     : A/ps
 output       pressure unit                     : GPa
 output     inv_length unit                     : 1/A
 output      frequency unit                     : cm-1
 output force constant unit                     : eV/A**2
 output         volume unit                     : A**3
 output   IR intensity unit                     : (D/A)**2/amu
 output         dipole unit                     : D
 output         efield unit                     : eV/A/e
 output        entropy unit                     : J/mol/K
 output    efield chi2 unit                     : pm/V
  
 wavefunctions paging                           : none
 random number generator seed                   : randomised (3115390)
 data distribution                              : optimal for this architecture
 optimization strategy                          : maximize speed(+++)

 *********************** Exchange-Correlation Parameters ***********************
  
 using functional                               : revised Perdew Burke Ernzerhof
 relativistic treatment                         : Koelling-Harmon
 DFT+D: Semi-empirical dispersion correction    : off

 ************************* Pseudopotential Parameters **************************
  
 pseudopotential representation                 : reciprocal space
 <beta|phi> representation                      : reciprocal space
 spin-orbit coupling                            : off

 **************************** Basis Set Parameters *****************************
  
 plane wave basis set cut-off                   :   900.0000   eV
 size of standard grid                          :     1.7500
 size of   fine   gmax                          :    26.8966   1/A
 finite basis set correction                    : none

 **************************** Electronic Parameters ****************************
  
 number of  electrons                           :  2109.    
 net charge of system                           :  0.000    
 net spin   of system                           :  1.000    
 number of  up  spins                           :  1055.    
 number of down spins                           :  1054.    
 treating system as spin-polarized
 number of bands                                :       1167

 ********************* Electronic Minimization Parameters **********************
  
 Method: Treating system as metallic with density mixing treatment of electrons,
         and number of  SD  steps               :          1
         and number of  CG  steps               :          4
  
 total energy / atom convergence tol.           : 0.1000E-05   eV
 eigen-energy convergence tolerance             : 0.2185E-06   eV
 max force / atom convergence tol.              : ignored
 convergence tolerance window                   :          3   cycles
 max. number of SCF cycles                      :        200
 number of fixed-spin iterations                :         10
 smearing scheme                                : Gaussian
 smearing width                                 : 0.2000       eV
 Fermi energy convergence tolerance             : 0.2721E-13   eV
 periodic dipole correction                     : NONE
 periodically dump wavefunctions to             : castep.wvfn
 dump wavefunctions every                       :          1   SCF cycles

 ************************** Density Mixing Parameters **************************
  
 density-mixing scheme                          : Pulay
 max. length of mixing history                  :         20
 charge density mixing amplitude                : 0.8000    
   spin density mixing amplitude                :  2.000    
 cut-off energy for mixing                      :  900.0       eV

 *********************** Population Analysis Parameters ************************
  
 Population analysis with cutoff                :  3.000       A
 Population analysis output                     : summary and pdos components

 ********************** Geometry Optimization Parameters ***********************
  
 optimization method                            : LBFGS
 max. no. of LBFGS updates                      : unbounded
 variable cell method                           : fixed basis quality
 max. number of steps                           :         30
 estimated bulk modulus                         :  500.0       GPa
 estimated <frequency>                          :  1668.       cm-1
 geom line minimiser                            : on
 with line minimiser tolerance                  :     0.4000
  with spin fully able to relax for all steps
 total energy convergence tolerance             : 0.2000E-04   eV/atom
        max ionic |force| tolerance             : 0.5000E-01   eV/A
 max ionic |displacement| tolerance             : 0.1000E-02   A
   max |stress component| tolerance             : 0.1000       GPa
 convergence tolerance window                   :          2   steps
 backup results every                           :          5   steps
 write geom trajectory file                     : on

 *******************************************************************************
  
 
                           -------------------------------
                                      Unit Cell
                           -------------------------------
        Real Lattice(A)                      Reciprocal Lattice(1/A)
    14.4648280     0.0000000     0.0000000        0.434376773   0.000000000   0.000000000
     0.0000000    14.4648280     0.0000000        0.000000000   0.434376773   0.000000000
     0.0000000     0.0000000    14.4648280        0.000000000   0.000000000   0.434376773
 
                       Lattice parameters(A)       Cell Angles
                    a =     14.464828          alpha =   90.000000
                    b =     14.464828          beta  =   90.000000
                    c =     14.464828          gamma =   90.000000
 
                       Current cell volume =          3026.494030       A**3
                                   density =             4.285146   AMU/A**3
                                           =             7.115653     g/cm^3
 
                           -------------------------------
                                     Cell Contents
                           -------------------------------
                         Total number of ions in cell =  255
                      Total number of species in cell =    2
                        Max number of any one species =  192
 
            xxxxxxxxxxxxxxxxxxxxxxxxxxxxxxxxxxxxxxxxxxxxxxxxxxxxxxxxxxxx
            x  Element    Atom        Fractional coordinates of atoms  x
            x            Number           u          v          w      x
            x----------------------------------------------------------x
            x  Al           1         0.569806   0.308622   0.065059   x 
            x  Al           2         0.817951   0.309632   0.062664   x 
            x  Al           3         0.568881   0.558713   0.066468   x 
            x  Al           4         0.817350   0.558387   0.063172   x 
            x  Al           5         0.574859   0.809258   0.059671   x 
            x  Al           6         0.818744   0.807917   0.061957   x 
            x  Al           7         0.571825   0.059181   0.062782   x 
            x  Al           8         0.819553   0.059518   0.061548   x 
            x  Al           9         0.569823   0.306122   0.313163   x 
            x  Al          10         0.819185   0.308383   0.312560   x 
            x  Al          11         0.573384   0.555040   0.312598   x 
            x  Al          12         0.818113   0.558917   0.312634   x 
            x  Al          13         0.577649   0.814984   0.312704   x 
            x  Al          14         0.819651   0.808958   0.312393   x 
            x  Al          15         0.574715   0.057059   0.308743   x 
            x  Al          16         0.820454   0.058863   0.312169   x 
            x  Al          17         0.575831   0.302864   0.560424   x 
            x  Al          18         0.818652   0.309210   0.562828   x 
            x  Al          19         0.573229   0.564155   0.559741   x 
            x  Al          20         0.817728   0.559166   0.562531   x 
            x  Al          21         0.575179   0.809576   0.566073   x 
            x  Al          22         0.819506   0.808399   0.563823   x 
            x  Al          23         0.577658   0.057871   0.569183   x 
            x  Al          24         0.820522   0.058410   0.564020   x 
            x  Al          25         0.571014   0.309951   0.811997   x 
            x  Al          26         0.817584   0.310510   0.813260   x 
            x  Al          27         0.568361   0.558297   0.812771   x 
            x  Al          28         0.817092   0.558170   0.813053   x 
            x  Al          29         0.570314   0.808081   0.813852   x 
            x  Al          30         0.819175   0.807413   0.813634   x 
            x  Al          31         0.572100   0.058932   0.812499   x 
            x  Al          32         0.819934   0.059407   0.814085   x 
            x  Al          33         0.328862   0.183238   0.934599   x 
            x  Al          34         0.056071   0.058323   0.808385   x 
            x  Al          35         0.192522   0.190652   0.805033   x 
            x  Al          36         0.321889   0.935684   0.939154   x 
            x  Al          37         0.192765   0.929975   0.805327   x 
            x  Al          38         0.318552   0.689581   0.944125   x 
            x  Al          39         0.074781   0.687234   0.929655   x 
            x  Al          40         0.197362   0.186655   0.572021   x 
            x  Al          41         0.066288   0.807061   0.566004   x 
            x  Al          42         0.325652   0.685599   0.688412   x 
            x  Al          43         0.193002   0.670155   0.563450   x 
            x  Al          44         0.325052   0.427628   0.687905   x 
            x  Al          45         0.327585   0.555988   0.819303   x 
            x  Al          46         0.198340   0.432133   0.547127   x 
            x  Al          47         0.065950   0.435124   0.684574   x 
            x  Al          48         0.317906   0.059858   0.311660   x 
            x  Al          49         0.441055   0.056783   0.444993   x 
            x  Al          50         0.185933   0.054361   0.184730   x 
            x  Al          51         0.066226   0.182485   0.441005   x 
            x  Al          52         0.433975   0.815755   0.439866   x 
            x  Al          53         0.069903   0.945639   0.441857   x 
            x  Al          54         0.200699   0.809930   0.431840   x 
            x  Al          55         0.432651   0.678665   0.311038   x 
            x  Al          56         0.437485   0.432543   0.545601   x 
            x  Al          57         0.193425   0.425568   0.319511   x 
            x  Al          58         0.187333   0.186962   0.058279   x 
            x  Al          59         0.434532   0.816990   0.185199   x 
            x  Al          60         0.191770   0.812312   0.187246   x 
            x  Al          61         0.192086   0.426487   0.056748   x 
            x  Al          62         0.191247   0.427430   0.822123   x 
            x  Al          63         0.188982   0.565212   0.186226   x 
            x  Ni           1         0.566326   0.431767   0.190718   x 
            x  Ni           2         0.694041   0.308251   0.188473   x 
            x  Ni           3         0.692558   0.433803   0.064397   x 
            x  Ni           4         0.818078   0.433915   0.187951   x 
            x  Ni           5         0.942832   0.309437   0.187429   x 
            x  Ni           6         0.942425   0.434346   0.062634   x 
            x  Ni           7         0.564261   0.687713   0.191739   x 
            x  Ni           8         0.692799   0.559065   0.188561   x 
            x  Ni           9         0.692856   0.682742   0.063981   x 
            x  Ni          10         0.818698   0.683407   0.187578   x 
            x  Ni          11         0.942537   0.558785   0.187665   x 
            x  Ni          12         0.942700   0.683078   0.062494   x 
            x  Ni          13         0.569249   0.932778   0.185210   x 
            x  Ni          14         0.695665   0.809096   0.186539   x 
            x  Ni          15         0.695876   0.934397   0.061256   x 
            x  Ni          16         0.820129   0.933822   0.186390   x 
            x  Ni          17         0.942996   0.808288   0.187066   x 
            x  Ni          18         0.943364   0.933396   0.061976   x 
            x  Ni          19         0.568782   0.183165   0.187725   x 
            x  Ni          20         0.696097   0.058622   0.185897   x 
            x  Ni          21         0.694106   0.184486   0.062391   x 
            x  Ni          22         0.819323   0.184128   0.186964   x 
            x  Ni          23         0.943433   0.058987   0.186860   x 
            x  Ni          24         0.943179   0.184762   0.062234   x 
            x  Ni          25         0.568748   0.432224   0.437722   x 
            x  Ni          26         0.694945   0.306625   0.436529   x 
            x  Ni          27         0.694403   0.432189   0.313257   x 
            x  Ni          28         0.818326   0.433905   0.437621   x 
            x  Ni          29         0.942747   0.309244   0.438061   x 
            x  Ni          30         0.942453   0.434216   0.312817   x 
            x  Ni          31         0.564607   0.689425   0.433060   x 
            x  Ni          32         0.693888   0.560210   0.436673   x 
            x  Ni          33         0.694229   0.684643   0.312469   x 
            x  Ni          34         0.819026   0.684279   0.437540   x 
            x  Ni          35         0.942400   0.559063   0.437932   x 
            x  Ni          36         0.942961   0.683701   0.312632   x 
            x  Ni          37         0.568742   0.935371   0.440257   x 
            x  Ni          38         0.695590   0.810250   0.438393   x 
            x  Ni          39         0.697786   0.935199   0.312221   x 
            x  Ni          40         0.820657   0.933755   0.438368   x 
            x  Ni          41         0.943351   0.808509   0.438125   x 
            x  Ni          42         0.943398   0.933533   0.312405   x 
            x  Ni          43         0.569798   0.177373   0.437541   x 
            x  Ni          44         0.696207   0.057442   0.438266   x 
            x  Ni          45         0.695586   0.182485   0.312252   x 
            x  Ni          46         0.820048   0.183135   0.437590   x 
            x  Ni          47         0.943929   0.058665   0.438191   x 
            x  Ni          48         0.943412   0.184008   0.312458   x 
            x  Ni          49         0.565872   0.434256   0.680437   x 
            x  Ni          50         0.694282   0.309716   0.687658   x 
            x  Ni          51         0.693787   0.433945   0.561234   x 
            x  Ni          52         0.817732   0.434592   0.687738   x 
            x  Ni          53         0.942823   0.309984   0.688234   x 
            x  Ni          54         0.942473   0.434483   0.563024   x 
            x  Ni          55         0.567159   0.683821   0.688675   x 
            x  Ni          56         0.692516   0.558858   0.687210   x 
            x  Ni          57         0.694391   0.684932   0.562037   x 
            x  Ni          58         0.818286   0.682873   0.688405   x 
            x  Ni          59         0.942523   0.558832   0.688035   x 
            x  Ni          60         0.942701   0.683503   0.563287   x 
            x  Ni          61         0.570598   0.933057   0.690555   x 
            x  Ni          62         0.695399   0.807913   0.690082   x 
            x  Ni          63         0.697380   0.933449   0.564742   x 
            x  Ni          64         0.820290   0.933065   0.689600   x 
            x  Ni          65         0.943322   0.807877   0.688688   x 
            x  Ni          66         0.943728   0.933317   0.563827   x 
            x  Ni          67         0.570994   0.183588   0.688807   x 
            x  Ni          68         0.697676   0.058636   0.690690   x 
            x  Ni          69         0.697809   0.182480   0.563332   x 
            x  Ni          70         0.819701   0.184842   0.689224   x 
            x  Ni          71         0.943620   0.058959   0.688884   x 
            x  Ni          72         0.942935   0.184264   0.563481   x 
            x  Ni          73         0.567324   0.434228   0.940254   x 
            x  Ni          74         0.692479   0.309766   0.938379   x 
            x  Ni          75         0.690865   0.434732   0.811886   x 
            x  Ni          76         0.816930   0.434358   0.937917   x 
            x  Ni          77         0.942803   0.310068   0.937694   x 
            x  Ni          78         0.942534   0.434550   0.812963   x 
            x  Ni          79         0.567582   0.683420   0.938635   x 
            x  Ni          80         0.691803   0.558278   0.938812   x 
            x  Ni          81         0.692945   0.682275   0.813313   x 
            x  Ni          82         0.817797   0.682300   0.938119   x 
            x  Ni          83         0.942468   0.558540   0.937902   x 
            x  Ni          84         0.942799   0.682775   0.813216   x 
            x  Ni          85         0.569116   0.934442   0.936813   x 
            x  Ni          86         0.695035   0.807910   0.937023   x 
            x  Ni          87         0.695600   0.933329   0.813988   x 
            x  Ni          88         0.819620   0.933672   0.937529   x 
            x  Ni          89         0.942983   0.807796   0.937794   x 
            x  Ni          90         0.943822   0.933276   0.813441   x 
            x  Ni          91         0.568091   0.183801   0.937788   x 
            x  Ni          92         0.694579   0.059582   0.937409   x 
            x  Ni          93         0.694561   0.185060   0.813737   x 
            x  Ni          94         0.818791   0.185204   0.937794   x 
            x  Ni          95         0.943731   0.059253   0.937630   x 
            x  Ni          96         0.943449   0.185080   0.813288   x 
            x  Ni          97         0.072830   0.431161   0.186795   x 
            x  Ni          98         0.191935   0.306445   0.186735   x 
            x  Ni          99         0.064917   0.306351   0.060173   x 
            x  Ni         100         0.312163   0.432397   0.187991   x 
            x  Ni         101         0.442260   0.306972   0.190645   x 
            x  Ni         102         0.317038   0.557594   0.063230   x 
            x  Ni         103         0.320140   0.305262   0.062716   x 
            x  Ni         104         0.066030   0.560488   0.057941   x 
            x  Ni         105         0.065169   0.687893   0.186848   x 
            x  Ni         106         0.315101   0.685121   0.184373   x 
            x  Ni         107         0.441818   0.557475   0.189699   x 
            x  Ni         108         0.444424   0.685948   0.066409   x 
            x  Ni         109         0.190257   0.686468   0.061682   x 
            x  Ni         110         0.065588   0.934550   0.185093   x 
            x  Ni         111         0.316805   0.812873   0.062332   x 
            x  Ni         112         0.190165   0.936728   0.057401   x 
            x  Ni         113         0.314070   0.939045   0.184710   x 
            x  Ni         114         0.318439   0.812068   0.309959   x 
            x  Ni         115         0.444956   0.936072   0.061698   x 
            x  Ni         116         0.065355   0.181074   0.184365   x 
            x  Ni         117         0.315999   0.062240   0.059553   x 
            x  Ni         118         0.066715   0.058915   0.055875   x 
            x  Ni         119         0.314812   0.179872   0.186090   x 
            x  Ni         120         0.443526   0.057239   0.187284   x 
            x  Ni         121         0.445038   0.183122   0.064088   x 
            x  Ni         122         0.193170   0.061874   0.928562   x 
            x  Ni         123         0.065619   0.430864   0.437518   x 
            x  Ni         124         0.191733   0.301352   0.437856   x 
            x  Ni         125         0.063956   0.304163   0.312175   x 
            x  Ni         126         0.446559   0.302658   0.435770   x 
            x  Ni         127         0.438317   0.432384   0.317734   x 
            x  Ni         128         0.319064   0.304684   0.313795   x 
            x  Ni         129         0.070257   0.685836   0.440089   x 
            x  Ni         130         0.191553   0.557526   0.433084   x 
            x  Ni         131         0.191399   0.685426   0.310824   x 
            x  Ni         132         0.066315   0.558595   0.311654   x 
            x  Ni         133         0.316028   0.682608   0.438127   x 
            x  Ni         134         0.444263   0.560813   0.434024   x 
            x  Ni         135         0.313727   0.554717   0.311409   x 
            x  Ni         136         0.065820   0.059667   0.312760   x 
            x  Ni         137         0.069375   0.815102   0.316211   x 
            x  Ni         138         0.315088   0.938455   0.440022   x 
            x  Ni         139         0.444489   0.936655   0.313814   x 
            x  Ni         140         0.191164   0.937997   0.312956   x 
            x  Ni         141         0.193967   0.063596   0.441017   x 
            x  Ni         142         0.190257   0.181730   0.310324   x 
            x  Ni         143         0.318020   0.180585   0.439169   x 
            x  Ni         144         0.444086   0.178014   0.313236   x 
            x  Ni         145         0.064866   0.308904   0.563085   x 
            x  Ni         146         0.448799   0.308992   0.682983   x 
            x  Ni         147         0.321314   0.309070   0.558770   x 
            x  Ni         148         0.066431   0.679162   0.688399   x 
            x  Ni         149         0.064892   0.556357   0.563051   x 
            x  Ni         150         0.197807   0.549121   0.690379   x 
            x  Ni         151         0.444901   0.557166   0.684527   x 
            x  Ni         152         0.444738   0.685578   0.560058   x 
            x  Ni         153         0.320811   0.555571   0.561509   x 
            x  Ni         154         0.064684   0.932195   0.687218   x 
            x  Ni         155         0.193012   0.803378   0.684728   x 
            x  Ni         156         0.191235   0.933597   0.565350   x 
            x  Ni         157         0.318285   0.932130   0.688771   x 
            x  Ni         158         0.445924   0.809728   0.686520   x 
            x  Ni         159         0.444699   0.933884   0.565368   x 
            x  Ni         160         0.315934   0.807019   0.563678   x 
            x  Ni         161         0.064882   0.186224   0.686487   x 
            x  Ni         162         0.191131   0.059456   0.691489   x 
            x  Ni         163         0.067446   0.061746   0.566501   x 
            x  Ni         164         0.320510   0.186986   0.689229   x 
            x  Ni         165         0.446315   0.058110   0.687215   x 
            x  Ni         166         0.445640   0.181834   0.563847   x 
            x  Ni         167         0.318108   0.059509   0.567997   x 
            x  Ni         168         0.066252   0.431621   0.935905   x 
            x  Ni         169         0.194610   0.303185   0.935928   x 
            x  Ni         170         0.192949   0.316989   0.685276   x 
            x  Ni         171         0.063584   0.309412   0.808278   x 
            x  Ni         172         0.320227   0.431847   0.938752   x 
            x  Ni         173         0.447505   0.308734   0.939130   x 
            x  Ni         174         0.447228   0.432730   0.812710   x 
            x  Ni         175         0.323165   0.309213   0.812856   x 
            x  Ni         176         0.067164   0.810919   0.058020   x 
            x  Ni         177         0.194194   0.558624   0.938136   x 
            x  Ni         178         0.199362   0.680453   0.810265   x 
            x  Ni         179         0.066280   0.556959   0.811618   x 
            x  Ni         180         0.442115   0.432246   0.066362   x 
            x  Ni         181         0.443587   0.683657   0.814754   x 
            x  Ni         182         0.444773   0.559654   0.943066   x 
            x  Ni         183         0.068169   0.932809   0.930342   x 
            x  Ni         184         0.194938   0.811414   0.934572   x 
            x  Ni         185         0.066525   0.807285   0.808272   x 
            x  Ni         186         0.445012   0.809972   0.940110   x 
            x  Ni         187         0.444728   0.934163   0.812638   x 
            x  Ni         188         0.321361   0.809290   0.813126   x 
            x  Ni         189         0.066359   0.183885   0.930972   x 
            x  Ni         190         0.320507   0.059009   0.811004   x 
            x  Ni         191         0.446403   0.058572   0.937259   x 
            x  Ni         192         0.446830   0.184331   0.810408   x 
            xxxxxxxxxxxxxxxxxxxxxxxxxxxxxxxxxxxxxxxxxxxxxxxxxxxxxxxxxxxx
 
 
                         No user defined ionic velocities
 
                           -------------------------------
                                   Details of Species
                           -------------------------------
 
                               Mass of species in AMU
                                    Al   26.9815400
                                    Ni   58.6934000
 
                          Electric Quadrupole Moment (Barn)
                                    Al    0.1466000 Isotope 27
                                    Ni    0.1620000 Isotope 61
 
                          Files used for pseudopotentials:
                                    Al 3|2.2|2.2|1.4|4|5|5|30:31:32U2U2
                                    Ni 3|2.4|2.4|1.0|8|9|10|40:41:32U2U2(qc=5.5)
 
                           -------------------------------
                              k-Points For BZ Sampling
                           -------------------------------
                       MP grid size for SCF calculation is  1  1  1
                            with an offset of   0.000  0.000  0.000
                       Number of kpoints used =             1
 
                           -------------------------------
                               Symmetry and Constraints
                           -------------------------------
 
                      Maximum deviation from symmetry =  0.00000         ANG
 
                      Number of symmetry operations   =           1
                      Number of ionic constraints     =           3
                      Point group of crystal =     1: C1, 1, 1
                      Space group of crystal =     1: P1, P 1
 
             Set iprint > 1 for details on symmetry rotations/translations
 
                         Centre of mass is constrained
             Set iprint > 1 for details of linear ionic constraints
 
                         Number of cell constraints= 6
                         Cell constraints are:  0 0 0 0 0 0
 
                         External pressure/stress (GPa)
                          0.00000   0.00000   0.00000
                                    0.00000   0.00000
                                              0.00000
 
+---------------- MEMORY AND SCRATCH DISK ESTIMATES PER PROCESS --------------+
|                                                     Memory          Disk    |
| Baseline code, static data and system overhead      855.0 MB         0.0 MB |
| BLAS internal memory storage                          0.0 MB         0.0 MB |
| Model and support data                              349.7 MB         0.0 MB |
| Electronic energy minimisation requirements          97.8 MB         0.0 MB |
| Force calculation requirements                        2.3 MB         0.0 MB |
|                                               ----------------------------- |
| Approx. total storage required per process         1302.5 MB         0.0 MB |
|                                                                             |
| Requirements will fluctuate during execution and may exceed these estimates |
+-----------------------------------------------------------------------------+
Calculating approximate eigenstates for fixed initial Hamiltonian
Cut-off for approx. calculation is  550.359 eV
Resetting cut-off to  900.000 eV
Calculating total energy with cut-off of  900.000 eV.
------------------------------------------------------------------------ <-- SCF
SCF loop      Energy           Fermi           Energy gain       Timer   <-- SCF
                               energy          per atom          (sec)   <-- SCF
------------------------------------------------------------------------ <-- SCF
Initial  -2.71884858E+005  0.00000000E+000                      1469.29  <-- SCF
      1  -2.71331783E+005  3.13944175E+000  -2.16892258E+000    1534.76  <-- SCF
      2  -2.71490869E+005  3.15568087E+000   6.23864675E-001    1602.35  <-- SCF
      3  -2.72646289E+005  8.87513391E+000   4.53106136E+000    1693.73  <-- SCF
      4  -2.72704026E+005  8.88959461E+000   2.26416421E-001    1762.01  <-- SCF
      5  -2.71602561E+005  6.40141838E+000  -4.31946681E+000    1856.14  <-- SCF
      6  -2.71750792E+005  6.38555014E+000   5.81294818E-001    1938.03  <-- SCF
      7  -2.71448768E+005  4.85077243E+000  -1.18440733E+000    2022.39  <-- SCF
      8  -2.71395717E+005  4.43846618E+000  -2.08043524E-001    2098.86  <-- SCF
      9  -2.71387875E+005  4.39900373E+000  -3.07502644E-002    2170.46  <-- SCF
     10  -2.71391428E+005  4.44868000E+000   1.39329605E-002    2239.02  <-- SCF
     11  -2.71995840E+005  5.92803687E+000   2.37024295E+000    2321.97  <-- SCF
     12  -2.71541409E+005  4.70758609E+000  -1.78208444E+000    2419.78  <-- SCF
     13  -2.71429788E+005  4.26140952E+000  -4.37727041E-001    2505.54  <-- SCF
     14  -2.71396540E+005  4.20277167E+000  -1.30386217E-001    2576.11  <-- SCF
     15  -2.71391934E+005  4.28306647E+000  -1.80630429E-002    2643.08  <-- SCF
     16  -2.71388593E+005  4.35383866E+000  -1.30991640E-002    2709.80  <-- SCF
     17  -2.71386219E+005  4.37389672E+000  -9.31050780E-003    2781.23  <-- SCF
     18  -2.71385222E+005  4.37488128E+000  -3.91081296E-003    2849.26  <-- SCF
     19  -2.71385025E+005  4.36227608E+000  -7.70931966E-004    2926.94  <-- SCF
     20  -2.71385302E+005  4.35884655E+000   1.08400569E-003    2996.88  <-- SCF
     21  -2.71384965E+005  4.37160948E+000  -1.32057137E-003    3079.67  <-- SCF
     22  -2.71384930E+005  4.37956098E+000  -1.36966870E-004    3151.37  <-- SCF
     23  -2.71384883E+005  4.38300419E+000  -1.86991253E-004    3230.07  <-- SCF
     24  -2.71384757E+005  4.38100420E+000  -4.92951344E-004    3295.82  <-- SCF
     25  -2.71384753E+005  4.37991239E+000  -1.51765516E-005    3367.84  <-- SCF
     26  -2.71384755E+005  4.37883033E+000   7.76343986E-006    3449.80  <-- SCF
     27  -2.71384748E+005  4.37865155E+000  -2.59604018E-005    3514.29  <-- SCF
     28  -2.71384748E+005  4.37857668E+000  -2.95159316E-007    3569.95  <-- SCF
     29  -2.71384749E+005  4.37895595E+000   1.55326284E-006    3627.44  <-- SCF
     30  -2.71384748E+005  4.37902817E+000  -2.24089223E-006    3675.12  <-- SCF
     31  -2.71384748E+005  4.37904661E+000  -1.27702835E-008    3722.39  <-- SCF
     32  -2.71384748E+005  4.37912221E+000   1.62234233E-007    3768.78  <-- SCF
------------------------------------------------------------------------ <-- SCF
 
Integrated Spin Density     =    0.680156E-01 hbar/2
Integrated |Spin Density|   =    0.135749     hbar/2
 
Final energy, E             =  -271380.2248952     eV
Final free energy (E-TS)    =  -271384.7480772     eV
(energies not corrected for finite basis set)
 
NB est. 0K energy (E-0.5TS)      =  -271382.4864862     eV
 

Writing analysis data to castep.castep_bin

Writing model to castep.check
 
+---------------- MEMORY AND SCRATCH DISK ESTIMATES PER PROCESS --------------+
|                                                     Memory          Disk    |
| Model and support data                              360.0 MB         0.0 MB |
| Electronic energy minimisation requirements          97.8 MB         0.0 MB |
| Geometry minimisation requirements                  126.4 MB         0.0 MB |
|                                               ----------------------------- |
| Approx. total storage required per process          584.2 MB         0.0 MB |
|                                                                             |
| Requirements will fluctuate during execution and may exceed these estimates |
+-----------------------------------------------------------------------------+
 
 
 ************************************** Forces **************************************
 *                                                                                  *
 *                           Cartesian components (eV/A)                            *
 * -------------------------------------------------------------------------------- *
 *                         x                    y                    z              *
 *                                                                                  *
 * Al              1     -0.11165             -0.00920             -0.03592         *
 * Al              2      0.04575             -0.02376             -0.00264         *
 * Al              3     -0.09940             -0.01816             -0.00836         *
 * Al              4      0.08108             -0.00975              0.00623         *
 * Al              5     -0.07734             -0.00118             -0.13865         *
 * Al              6      0.11575              0.02385              0.00773         *
 * Al              7     -0.15605              0.04172             -0.03207         *
 * Al              8      0.06649              0.01612             -0.02156         *
 * Al              9     -0.06374              0.04628             -0.00710         *
 * Al             10      0.04826              0.01195             -0.02841         *
 * Al             11     -0.03516             -0.12602              0.00328         *
 * Al             12      0.09624              0.00142             -0.02005         *
 * Al             13      0.35379              0.07602             -0.01690         *
 * Al             14      0.03833             -0.04763             -0.03296         *
 * Al             15     -0.02235              0.00695             -0.11436         *
 * Al             16      0.06872              0.03525             -0.02088         *
 * Al             17     -0.08743             -0.05942              0.00767         *
 * Al             18      0.02497              0.02832             -0.00650         *
 * Al             19     -0.05524              0.04809             -0.02317         *
 * Al             20      0.06884             -0.00436             -0.01417         *
 * Al             21     -0.05094              0.00351              0.11948         *
 * Al             22      0.12061              0.00006             -0.00421         *
 * Al             23     -0.00247              0.02534              0.10307         *
 * Al             24      0.02518             -0.00206             -0.02083         *
 * Al             25     -0.11567             -0.06954              0.01652         *
 * Al             26      0.00172             -0.02184              0.01721         *
 * Al             27     -0.12073              0.00137              0.03035         *
 * Al             28      0.07144              0.02284              0.00968         *
 * Al             29     -0.14683              0.06469              0.02397         *
 * Al             30      0.05159              0.00302              0.02150         *
 * Al             31     -0.18182              0.01097              0.02902         *
 * Al             32      0.08741             -0.02375              0.03806         *
 * Al             33      0.12066              0.08424              0.12002         *
 * Al             34      0.36784              0.15143              0.30186         *
 * Al             35     -0.01940              0.00934             -0.06769         *
 * Al             36      0.16067              0.05101              0.21744         *
 * Al             37     -0.04931             -0.29227             -0.04747         *
 * Al             38      0.04566              0.07098              0.20466         *
 * Al             39     -0.55241             -0.28212              0.53040         *
 * Al             40      0.06418             -0.22843             -0.06301         *
 * Al             41     -0.68573             -0.05773              0.59593         *
 * Al             42      0.24993              0.22594             -0.14484         *
 * Al             43     -0.14312             -0.11433             -0.07559         *
 * Al             44      0.18622             -0.19122             -0.30385         *
 * Al             45     -0.07048              0.02165              0.22507         *
 * Al             46      0.03322              0.09750             -0.25417         *
 * Al             47     -0.69867             -0.05937              0.09862         *
 * Al             48     -0.25271             -0.09115             -0.03089         *
 * Al             49      0.01779              0.17700              0.12761         *
 * Al             50     -0.28689              0.06010             -0.04366         *
 * Al             51     -0.38326              0.03446             -0.66884         *
 * Al             52     -0.13014              0.03410              0.20940         *
 * Al             53     -0.51009             -0.07636             -0.65534         *
 * Al             54      0.10868             -0.05587             -0.16918         *
 * Al             55     -0.22353             -0.14081             -0.10733         *
 * Al             56      0.00859             -0.08981             -0.10549         *
 * Al             57     -0.01115             -0.07307             -0.00018         *
 * Al             58     -0.08163              0.03886              0.13124         *
 * Al             59     -0.01962              0.09069             -0.28257         *
 * Al             60     -0.18231             -0.03384             -0.15147         *
 * Al             61     -0.00544              0.04866              0.00400         *
 * Al             62     -0.19596              0.00088              0.27862         *
 * Al             63      0.00070              0.08589             -0.00986         *
 * Ni              1     -0.03773              0.05273             -0.02385         *
 * Ni              2      0.01414             -0.00649              0.01315         *
 * Ni              3      0.01308              0.01831              0.03048         *
 * Ni              4      0.11263             -0.01430             -0.00494         *
 * Ni              5      0.16760             -0.01370             -0.02782         *
 * Ni              6      0.19656              0.03893              0.02858         *
 * Ni              7      0.12167              0.20893              0.29955         *
 * Ni              8      0.02992             -0.00949              0.01300         *
 * Ni              9      0.04287              0.00723             -0.01824         *
 * Ni             10     -0.00249              0.00061              0.02871         *
 * Ni             11      0.35052             -0.07492             -0.05114         *
 * Ni             12      0.22075              0.07731             -0.02772         *
 * Ni             13      0.09894             -0.15468              0.18161         *
 * Ni             14     -0.06058             -0.01573              0.00602         *
 * Ni             15     -0.08505             -0.02242              0.04700         *
 * Ni             16     -0.02126              0.00131             -0.01553         *
 * Ni             17      0.12990              0.11610              0.00663         *
 * Ni             18      0.12664             -0.00742             -0.16093         *
 * Ni             19      0.00281             -0.01805              0.07743         *
 * Ni             20      0.05307              0.01256              0.00751         *
 * Ni             21      0.00008             -0.00714             -0.00700         *
 * Ni             22      0.02607              0.01107             -0.01965         *
 * Ni             23      0.15132             -0.00914             -0.05450         *
 * Ni             24      0.05696             -0.10923             -0.11634         *
 * Ni             25      0.03672              0.04016              0.07924         *
 * Ni             26      0.04152              0.08661              0.01234         *
 * Ni             27      0.08288              0.00860             -0.04353         *
 * Ni             28      0.00238              0.01850             -0.05716         *
 * Ni             29      0.07239              0.07157             -0.02294         *
 * Ni             30      0.24308             -0.06850             -0.10234         *
 * Ni             31      0.17134              0.19743             -0.28879         *
 * Ni             32     -0.02539             -0.05889              0.01995         *
 * Ni             33     -0.05370              0.01919              0.01100         *
 * Ni             34     -0.05160             -0.08158             -0.01707         *
 * Ni             35      0.20159             -0.01495             -0.00013         *
 * Ni             36      0.25514              0.11110              0.05784         *
 * Ni             37      0.19785             -0.06037             -0.07126         *
 * Ni             38      0.02250             -0.03939              0.00946         *
 * Ni             39     -0.07622             -0.00171              0.02470         *
 * Ni             40     -0.01688             -0.04563             -0.01983         *
 * Ni             41      0.33587              0.05256             -0.01970         *
 * Ni             42      0.16779              0.06822             -0.07587         *
 * Ni             43      0.09102             -0.02547              0.02461         *
 * Ni             44      0.08671              0.00078             -0.00258         *
 * Ni             45     -0.03399             -0.00137              0.03814         *
 * Ni             46      0.00287              0.07497             -0.00261         *
 * Ni             47     -0.22733              0.11002              0.10701         *
 * Ni             48     -0.06650             -0.10761             -0.12110         *
 * Ni             49      0.22623             -0.05223             -0.00586         *
 * Ni             50     -0.01366             -0.01420             -0.01341         *
 * Ni             51     -0.00723              0.00775             -0.00541         *
 * Ni             52      0.05725             -0.01104              0.00760         *
 * Ni             53     -0.08280             -0.17304             -0.11255         *
 * Ni             54     -0.15880             -0.05904             -0.23531         *
 * Ni             55      0.09829              0.02742             -0.14556         *
 * Ni             56     -0.02101              0.01153             -0.03356         *
 * Ni             57      0.00028              0.00984              0.01141         *
 * Ni             58     -0.01937              0.01344             -0.03505         *
 * Ni             59     -0.01512              0.13510             -0.02175         *
 * Ni             60      0.09153             -0.14502             -0.04909         *
 * Ni             61      0.08989              0.05537             -0.16051         *
 * Ni             62     -0.00416             -0.02590             -0.01032         *
 * Ni             63     -0.11077              0.00081             -0.06174         *
 * Ni             64     -0.03763              0.01395              0.01501         *
 * Ni             65     -0.03417             -0.10777              0.11960         *
 * Ni             66      0.06812              0.03278             -0.02162         *
 * Ni             67      0.07271             -0.01536             -0.12929         *
 * Ni             68     -0.00201              0.00874             -0.01774         *
 * Ni             69     -0.04132             -0.02168             -0.02381         *
 * Ni             70     -0.00783             -0.02957             -0.00719         *
 * Ni             71     -0.29957              0.03830             -0.48785         *
 * Ni             72     -0.13806             -0.03293              0.13177         *
 * Ni             73      0.10599             -0.00710              0.03528         *
 * Ni             74      0.03194             -0.00096             -0.00502         *
 * Ni             75      0.10308             -0.00923              0.03501         *
 * Ni             76      0.01519             -0.03052              0.06188         *
 * Ni             77      0.08618             -0.05758             -0.09026         *
 * Ni             78     -0.06783              0.00990              0.10495         *
 * Ni             79      0.11919             -0.02686              0.12885         *
 * Ni             80      0.03617              0.02939              0.00484         *
 * Ni             81      0.01215              0.02689             -0.00925         *
 * Ni             82      0.00733             -0.00689             -0.01037         *
 * Ni             83      0.12820             -0.06023             -0.08889         *
 * Ni             84     -0.01193             -0.04447             -0.13306         *
 * Ni             85      0.12331             -0.00686              0.04773         *
 * Ni             86      0.00148              0.00076             -0.00705         *
 * Ni             87     -0.00811             -0.01016             -0.00817         *
 * Ni             88     -0.04795              0.02400              0.02152         *
 * Ni             89      0.12279              0.11538             -0.15543         *
 * Ni             90     -0.28156             -0.35191             -0.11898         *
 * Ni             91      0.13634              0.05071             -0.00567         *
 * Ni             92      0.01248             -0.03287              0.01831         *
 * Ni             93      0.00016             -0.00532             -0.03666         *
 * Ni             94      0.01997              0.01182              0.01389         *
 * Ni             95     -0.13619             -0.06564              0.11109         *
 * Ni             96     -0.38235              0.28016             -0.12310         *
 * Ni             97     -0.30511              0.31422              0.00536         *
 * Ni             98      0.01843             -0.18326              0.15891         *
 * Ni             99      0.00263              0.28414              0.08896         *
 * Ni            100      0.24928              0.07806              0.20611         *
 * Ni            101     -0.22153              0.00707             -0.10599         *
 * Ni            102      0.02423             -0.08693              0.14111         *
 * Ni            103      0.08974              0.02059              0.03980         *
 * Ni            104      0.06697             -0.23745              0.40155         *
 * Ni            105     -0.02687             -0.17930              0.00478         *
 * Ni            106      0.31276             -0.05572              0.04777         *
 * Ni            107     -0.20299             -0.15649             -0.01680         *
 * Ni            108     -0.06993              0.00051              0.01383         *
 * Ni            109      0.01721             -0.00875             -0.04430         *
 * Ni            110     -0.11656             -0.16980              0.15030         *
 * Ni            111     -0.22930             -0.04544             -0.04735         *
 * Ni            112      0.02892             -0.14537             -0.03911         *
 * Ni            113      0.26122              0.13345              0.07555         *
 * Ni            114      0.00871              0.00173              0.00888         *
 * Ni            115     -0.05761              0.00600              0.14553         *
 * Ni            116      0.12458              0.23256              0.14786         *
 * Ni            117      0.06338              0.02784              0.14132         *
 * Ni            118      0.13636             -0.00996              0.12254         *
 * Ni            119      0.16766              0.12396              0.05689         *
 * Ni            120     -0.02152              0.06317             -0.26440         *
 * Ni            121     -0.12158             -0.07970              0.23783         *
 * Ni            122     -0.17208             -0.06290              0.12665         *
 * Ni            123      0.03051              0.13869             -0.15951         *
 * Ni            124      0.09034             -0.11331              0.02014         *
 * Ni            125      0.21720              0.32061             -0.13123         *
 * Ni            126     -0.26689             -0.13658              0.11325         *
 * Ni            127     -0.02469             -0.04199             -0.19872         *
 * Ni            128     -0.14638             -0.14792              0.00209         *
 * Ni            129      0.03085              0.14408             -0.12167         *
 * Ni            130      0.01935              0.09523              0.02763         *
 * Ni            131      0.06364             -0.05297              0.14176         *
 * Ni            132      0.13413             -0.02357              0.02886         *
 * Ni            133      0.10540             -0.28935             -0.15192         *
 * Ni            134     -0.12289              0.01535              0.24639         *
 * Ni            135     -0.16635              0.06741              0.13105         *
 * Ni            136     -0.09751              0.07885             -0.17171         *
 * Ni            137     -0.26147             -0.43280             -0.04870         *
 * Ni            138      0.12073              0.08428             -0.02406         *
 * Ni            139     -0.13276             -0.03834             -0.09343         *
 * Ni            140      0.12282             -0.03450             -0.00722         *
 * Ni            141     -0.13094              0.04927              0.20580         *
 * Ni            142      0.21370              0.08069             -0.08868         *
 * Ni            143      0.32538              0.36994             -0.22083         *
 * Ni            144     -0.13057             -0.03005              0.02033         *
 * Ni            145      0.19650              0.06243             -0.07159         *
 * Ni            146     -0.35713             -0.11077              0.09024         *
 * Ni            147      0.00731             -0.02835              0.12400         *
 * Ni            148      0.26480              0.09423             -0.01372         *
 * Ni            149      0.22188             -0.03159             -0.23949         *
 * Ni            150      0.07598             -0.09335              0.27370         *
 * Ni            151     -0.30473             -0.03674              0.01886         *
 * Ni            152      0.02950             -0.03137             -0.06502         *
 * Ni            153     -0.09461              0.14982             -0.26429         *
 * Ni            154      0.25480              0.21397              0.01758         *
 * Ni            155     -0.00155             -0.12984              0.05971         *
 * Ni            156     -0.04738             -0.13330             -0.29438         *
 * Ni            157      0.25024              0.05431             -0.26618         *
 * Ni            158     -0.18128              0.09002              0.23615         *
 * Ni            159     -0.16331             -0.05036              0.11621         *
 * Ni            160     -0.25837              0.17914              0.23930         *
 * Ni            161      0.01608              0.07097              0.13100         *
 * Ni            162      0.00937             -0.13365              0.07884         *
 * Ni            163      0.09109              0.06557              0.26375         *
 * Ni            164      0.31888             -0.10899             -0.09224         *
 * Ni            165     -0.32558              0.08287              0.17175         *
 * Ni            166     -0.11763             -0.00308             -0.03502         *
 * Ni            167     -0.06115             -0.17122              0.10514         *
 * Ni            168     -0.24086              0.16346              0.22661         *
 * Ni            169     -0.03192             -0.12311             -0.05501         *
 * Ni            170      0.08941              0.26795              0.00959         *
 * Ni            171      0.26798              0.12969              0.33281         *
 * Ni            172      0.28256             -0.14446              0.01809         *
 * Ni            173     -0.27651              0.25880             -0.08676         *
 * Ni            174     -0.05750              0.01056              0.10995         *
 * Ni            175      0.00308             -0.03395             -0.01656         *
 * Ni            176      0.00719             -0.05136              0.22027         *
 * Ni            177      0.06437             -0.00649             -0.17700         *
 * Ni            178      0.07986              0.07371             -0.23093         *
 * Ni            179      0.28983             -0.07120              0.07841         *
 * Ni            180     -0.07310              0.02762             -0.10886         *
 * Ni            181     -0.10025             -0.03971              0.04687         *
 * Ni            182     -0.17215             -0.16584             -0.09713         *
 * Ni            183      0.06272              0.09300              0.36212         *
 * Ni            184     -0.15051              0.16033              0.00506         *
 * Ni            185      0.14862             -0.05450              0.01859         *
 * Ni            186     -0.00906             -0.10604             -0.13822         *
 * Ni            187     -0.07197             -0.10933             -0.18502         *
 * Ni            188      0.04319              0.18611             -0.07069         *
 * Ni            189     -0.05775              0.08104              0.27662         *
 * Ni            190      0.12876             -0.02707             -0.20498         *
 * Ni            191     -0.06015              0.04007             -0.10642         *
 * Ni            192      0.08298             -0.01900             -0.13389         *
 *                                                                                  *
 ************************************************************************************
 LBFGS: finished iteration     0 with enthalpy= -2.71384748E+005 eV
  
 +-----------+-----------------+-----------------+------------+-----+ <-- LBFGS
 | Parameter |      value      |    tolerance    |    units   | OK? | <-- LBFGS
 +-----------+-----------------+-----------------+------------+-----+ <-- LBFGS
 |  dE/ion   |   0.000000E+000 |   2.000000E-005 |         eV | No  | <-- LBFGS
 |  |F|max   |   9.103196E-001 |   5.000000E-002 |       eV/A | No  | <-- LBFGS
 |  |dR|max  |   0.000000E+000 |   1.000000E-003 |          A | No  | <-- LBFGS
 +-----------+-----------------+-----------------+------------+-----+ <-- LBFGS
  

================================================================================
 Starting LBFGS iteration          1 ...
================================================================================
  
 +------------+-------------+-------------+-----------------+ <-- min LBFGS
 |    Step    |   lambda    |   F.delta'  |    enthalpy     | <-- min LBFGS
 +------------+-------------+-------------+-----------------+ <-- min LBFGS
 |  previous  |    0.000000 |    2.059131 |  -271384.748077 | <-- min LBFGS
 +------------+-------------+-------------+-----------------+ <-- min LBFGS
  

--------------------------------------------------------------------------------
 LBFGS: starting iteration         1 with trial guess (lambda=  1.000000)
--------------------------------------------------------------------------------
 
                           -------------------------------
                                     Cell Contents
                           -------------------------------
 
            xxxxxxxxxxxxxxxxxxxxxxxxxxxxxxxxxxxxxxxxxxxxxxxxxxxxxxxxxxxxxxxxx
            x  Element         Atom        Fractional coordinates of atoms  x
            x                 Number           u          v          w      x
            x---------------------------------------------------------------x
            x  Al                1         0.569792   0.308621   0.065055   x
            x  Al                2         0.817957   0.309629   0.062663   x
            x  Al                3         0.568868   0.558710   0.066467   x
            x  Al                4         0.817361   0.558385   0.063173   x
            x  Al                5         0.574848   0.809258   0.059652   x
            x  Al                6         0.818759   0.807920   0.061958   x
            x  Al                7         0.571805   0.059187   0.062778   x
            x  Al                8         0.819562   0.059520   0.061545   x
            x  Al                9         0.569814   0.306128   0.313162   x
            x  Al               10         0.819191   0.308384   0.312556   x
            x  Al               11         0.573379   0.555024   0.312598   x
            x  Al               12         0.818126   0.558918   0.312632   x
            x  Al               13         0.577696   0.814994   0.312702   x
            x  Al               14         0.819656   0.808952   0.312388   x
            x  Al               15         0.574712   0.057060   0.308728   x
            x  Al               16         0.820463   0.058868   0.312166   x
            x  Al               17         0.575820   0.302857   0.560425   x
            x  Al               18         0.818655   0.309214   0.562828   x
            x  Al               19         0.573221   0.564161   0.559738   x
            x  Al               20         0.817737   0.559165   0.562529   x
            x  Al               21         0.575172   0.809577   0.566088   x
            x  Al               22         0.819522   0.808399   0.563822   x
            x  Al               23         0.577657   0.057875   0.569197   x
            x  Al               24         0.820525   0.058410   0.564018   x
            x  Al               25         0.570999   0.309942   0.812000   x
            x  Al               26         0.817584   0.310507   0.813263   x
            x  Al               27         0.568345   0.558297   0.812775   x
            x  Al               28         0.817102   0.558174   0.813054   x
            x  Al               29         0.570294   0.808089   0.813856   x
            x  Al               30         0.819182   0.807413   0.813637   x
            x  Al               31         0.572076   0.058933   0.812503   x
            x  Al               32         0.819946   0.059404   0.814090   x
            x  Al               33         0.328878   0.183249   0.934615   x
            x  Al               34         0.056120   0.058343   0.808425   x
            x  Al               35         0.192520   0.190653   0.805024   x
            x  Al               36         0.321910   0.935690   0.939183   x
            x  Al               37         0.192758   0.929936   0.805321   x
            x  Al               38         0.318558   0.689590   0.944152   x
            x  Al               39         0.074708   0.687197   0.929726   x
            x  Al               40         0.197370   0.186624   0.572013   x
            x  Al               41         0.066197   0.807053   0.566083   x
            x  Al               42         0.325685   0.685629   0.688392   x
            x  Al               43         0.192983   0.670139   0.563440   x
            x  Al               44         0.325077   0.427603   0.687865   x
            x  Al               45         0.327575   0.555991   0.819332   x
            x  Al               46         0.198344   0.432146   0.547093   x
            x  Al               47         0.065857   0.435116   0.684587   x
            x  Al               48         0.317872   0.059845   0.311656   x
            x  Al               49         0.441057   0.056806   0.445010   x
            x  Al               50         0.185894   0.054369   0.184724   x
            x  Al               51         0.066176   0.182490   0.440917   x
            x  Al               52         0.433957   0.815759   0.439894   x
            x  Al               53         0.069835   0.945629   0.441769   x
            x  Al               54         0.200714   0.809923   0.431817   x
            x  Al               55         0.432621   0.678647   0.311023   x
            x  Al               56         0.437487   0.432531   0.545587   x
            x  Al               57         0.193424   0.425559   0.319511   x
            x  Al               58         0.187322   0.186967   0.058296   x
            x  Al               59         0.434530   0.817002   0.185162   x
            x  Al               60         0.191745   0.812308   0.187226   x
            x  Al               61         0.192085   0.426494   0.056749   x
            x  Al               62         0.191221   0.427430   0.822160   x
            x  Al               63         0.188982   0.565223   0.186225   x
            x  Ni                1         0.566321   0.431774   0.190715   x
            x  Ni                2         0.694043   0.308250   0.188475   x
            x  Ni                3         0.692559   0.433806   0.064401   x
            x  Ni                4         0.818093   0.433914   0.187951   x
            x  Ni                5         0.942854   0.309435   0.187425   x
            x  Ni                6         0.942452   0.434351   0.062638   x
            x  Ni                7         0.564277   0.687740   0.191778   x
            x  Ni                8         0.692803   0.559064   0.188563   x
            x  Ni                9         0.692862   0.682743   0.063979   x
            x  Ni               10         0.818698   0.683407   0.187582   x
            x  Ni               11         0.942583   0.558775   0.187658   x
            x  Ni               12         0.942729   0.683088   0.062491   x
            x  Ni               13         0.569262   0.932758   0.185234   x
            x  Ni               14         0.695657   0.809094   0.186540   x
            x  Ni               15         0.695865   0.934394   0.061263   x
            x  Ni               16         0.820126   0.933822   0.186388   x
            x  Ni               17         0.943013   0.808303   0.187067   x
            x  Ni               18         0.943381   0.933395   0.061954   x
            x  Ni               19         0.568782   0.183163   0.187736   x
            x  Ni               20         0.696104   0.058623   0.185898   x
            x  Ni               21         0.694106   0.184485   0.062390   x
            x  Ni               22         0.819326   0.184130   0.186962   x
            x  Ni               23         0.943453   0.058985   0.186853   x
            x  Ni               24         0.943187   0.184747   0.062219   x
            x  Ni               25         0.568753   0.432230   0.437732   x
            x  Ni               26         0.694951   0.306636   0.436531   x
            x  Ni               27         0.694414   0.432191   0.313251   x
            x  Ni               28         0.818326   0.433907   0.437614   x
            x  Ni               29         0.942757   0.309254   0.438058   x
            x  Ni               30         0.942485   0.434207   0.312803   x
            x  Ni               31         0.564630   0.689452   0.433022   x
            x  Ni               32         0.693884   0.560203   0.436676   x
            x  Ni               33         0.694222   0.684646   0.312471   x
            x  Ni               34         0.819019   0.684268   0.437537   x
            x  Ni               35         0.942427   0.559061   0.437932   x
            x  Ni               36         0.942995   0.683716   0.312640   x
            x  Ni               37         0.568768   0.935363   0.440248   x
            x  Ni               38         0.695593   0.810245   0.438395   x
            x  Ni               39         0.697776   0.935199   0.312224   x
            x  Ni               40         0.820655   0.933749   0.438365   x
            x  Ni               41         0.943395   0.808516   0.438122   x
            x  Ni               42         0.943420   0.933542   0.312395   x
            x  Ni               43         0.569810   0.177369   0.437545   x
            x  Ni               44         0.696219   0.057442   0.438265   x
            x  Ni               45         0.695582   0.182484   0.312257   x
            x  Ni               46         0.820049   0.183145   0.437589   x
            x  Ni               47         0.943899   0.058680   0.438206   x
            x  Ni               48         0.943403   0.183993   0.312442   x
            x  Ni               49         0.565902   0.434249   0.680436   x
            x  Ni               50         0.694280   0.309714   0.687656   x
            x  Ni               51         0.693786   0.433946   0.561233   x
            x  Ni               52         0.817740   0.434590   0.687739   x
            x  Ni               53         0.942812   0.309961   0.688219   x
            x  Ni               54         0.942452   0.434476   0.562992   x
            x  Ni               55         0.567172   0.683825   0.688656   x
            x  Ni               56         0.692514   0.558860   0.687205   x
            x  Ni               57         0.694391   0.684934   0.562038   x
            x  Ni               58         0.818283   0.682875   0.688400   x
            x  Ni               59         0.942521   0.558850   0.688032   x
            x  Ni               60         0.942714   0.683484   0.563280   x
            x  Ni               61         0.570610   0.933065   0.690533   x
            x  Ni               62         0.695399   0.807910   0.690081   x
            x  Ni               63         0.697366   0.933450   0.564734   x
            x  Ni               64         0.820285   0.933067   0.689602   x
            x  Ni               65         0.943318   0.807863   0.688704   x
            x  Ni               66         0.943737   0.933322   0.563824   x
            x  Ni               67         0.571004   0.183586   0.688790   x
            x  Ni               68         0.697676   0.058637   0.690688   x
            x  Ni               69         0.697803   0.182477   0.563328   x
            x  Ni               70         0.819700   0.184838   0.689223   x
            x  Ni               71         0.943581   0.058964   0.688819   x
            x  Ni               72         0.942916   0.184259   0.563498   x
            x  Ni               73         0.567338   0.434227   0.940259   x
            x  Ni               74         0.692483   0.309766   0.938378   x
            x  Ni               75         0.690879   0.434731   0.811890   x
            x  Ni               76         0.816933   0.434354   0.937925   x
            x  Ni               77         0.942814   0.310061   0.937682   x
            x  Ni               78         0.942525   0.434551   0.812977   x
            x  Ni               79         0.567598   0.683417   0.938652   x
            x  Ni               80         0.691808   0.558282   0.938813   x
            x  Ni               81         0.692946   0.682278   0.813312   x
            x  Ni               82         0.817798   0.682299   0.938117   x
            x  Ni               83         0.942485   0.558532   0.937890   x
            x  Ni               84         0.942797   0.682769   0.813198   x
            x  Ni               85         0.569132   0.934441   0.936820   x
            x  Ni               86         0.695035   0.807910   0.937022   x
            x  Ni               87         0.695599   0.933327   0.813987   x
            x  Ni               88         0.819613   0.933675   0.937532   x
            x  Ni               89         0.942999   0.807811   0.937773   x
[...]
             Al 43 -- Ni 133                 0.20        -0.00          2.59114
             Al 3  -- Ni 80                  0.20         0.00          2.59118
             Al 25 -- Ni 73                  0.20         0.00          2.59136
            Ni 49  -- Ni 174                 0.03         0.00          2.59153
            Ni 107 -- Ni 108                 0.04         0.00          2.59165
             Al 19 -- Ni 25                  0.20         0.00          2.59187
            Ni 110 -- Ni 112                 0.05        -0.00          2.59217
             Al 51 -- Ni 145                 0.19         0.00          2.59226
             Al 14 -- Ni 16                  0.19        -0.00          2.59235
            Ni 116 -- Ni 118                 0.02        -0.00          2.59237
            Ni 13  -- Ni 120                 0.04         0.00          2.59247
             Al 34 -- Ni 162                 0.16         0.00          2.59350
            Ni 37  -- Ni 139                -0.02         0.00          2.59355
             Al 15 -- Ni 44                  0.20         0.00          2.59356
            Ni 59  -- Ni 78                 -0.00         0.00          2.59358
             Al 9  -- Ni 43                  0.21        -0.00          2.59361
            Ni 101 -- Ni 144                 0.09         0.00          2.59372
            Ni 67  -- Ni 165                 0.03         0.00          2.59380
             Al 27 -- Ni 182                 0.17         0.00          2.59394
             Al 17 -- Ni 126                 0.15        -0.00          2.59411
             Al 1  -- Ni 101                 0.17         0.00          2.59419
            Ni 143 -- Ni 167                 0.01        -0.00          2.59427
             Al 60 -- Ni 106                 0.19        -0.00          2.59427
            Ni 25  -- Ni 27                  0.06        -0.00          2.59441
             Al 55 -- Ni 31                  0.18        -0.00          2.59442
            Ni 150 -- Ni 178                 0.07        -0.00          2.59449
             Al 23 -- Ni 165                 0.18        -0.00          2.59520
             Al 27 -- Ni 80                  0.19         0.00          2.59532
            Ni 35  -- Ni 129                 0.09         0.00          2.59544
            Ni 13  -- Ni 139                -0.01         0.00          2.59553
             Al 47 -- Ni 150                 0.22         0.00          2.59562
            Ni 121 -- Ni 191                 0.00         0.00          2.59567
            Ni 29  -- Ni 72                  0.01        -0.00          2.59572
             Al 46 -- Ni 170                 0.17         0.00          2.59578
            Ni 37  -- Ni 159                -0.02         0.00          2.59585
             Al 43 -- Ni 155                 0.19        -0.00          2.59618
             Al 11 -- Ni 107                 0.17         0.00          2.59645
             Al 36 -- Ni 190                 0.17         0.00          2.59651
             Al 60 -- Ni 113                 0.19        -0.00          2.59655
            Ni 133 -- Ni 160                -0.03        -0.00          2.59660
            Ni 147 -- Ni 170                -0.03         0.00          2.59665
            Ni 47  -- Ni 48                 -0.01         0.00          2.59666
             Al 22 -- Ni 62                  0.19        -0.00          2.59699
            Ni 155 -- Ni 156                 0.06         0.00          2.59710
             Al 46 -- Ni 149                 0.13         0.00          2.59713
            Ni 71  -- Ni 96                  0.01         0.00          2.59723
             Al 38 -- Ni 181                 0.18         0.00          2.59742
            Ni 13  -- Ni 20                  0.06         0.00          2.59790
            Ni 111 -- Ni 186                 0.08         0.00          2.59791
             Al 15 -- Ni 37                  0.19        -0.00          2.59813
            Ni 99  -- Ni 169                 0.01        -0.00          2.59820
            Ni 25  -- Ni 134                -0.00         0.00          2.59821
            Ni 41  -- Ni 66                 -0.03         0.00          2.59822
            Ni 98  -- Ni 99                  0.01        -0.00          2.59832
            Ni 55  -- Ni 151                 0.08         0.00          2.59832
            Ni 174 -- Ni 182                -0.00         0.00          2.59989
            Ni 152 -- Ni 158                 0.02         0.00          2.59995
             Al 40 -- Ni 145                 0.16         0.00          2.60041
             Al 41 -- Ni 129                 0.20         0.00          2.60066
             Al 11 -- Ni 7                   0.19        -0.00          2.60071
            Ni 111 -- Ni 115                 0.04         0.00          2.60103
            Ni 112 -- Ni 122                 0.11         0.00          2.60112
            Ni 117 -- Ni 122                 0.04         0.00          2.60130
             Al 24 -- Ni 46                  0.18        -0.00          2.60161
            Ni 95  -- Ni 96                  0.01         0.00          2.60165
            Ni 100 -- Ni 103                 0.09        -0.00          2.60180
             Al 51 -- Ni 142                 0.17        -0.00          2.60203
            Ni 156 -- Ni 167                 0.12        -0.00          2.60220
            Ni 155 -- Ni 157                 0.07        -0.00          2.60267
            Ni 53  -- Ni 78                  0.01         0.00          2.60303
            Ni 169 -- Ni 171                -0.00         0.00          2.60307
             Al 48 -- Ni 141                 0.17        -0.00          2.60317
             Al 58 -- Ni 117                 0.15         0.00          2.60342
             Al 11 -- Ni 33                  0.19        -0.00          2.60349
             Al 38 -- Ni 188                 0.17        -0.00          2.60354
             Al 43 -- Ni 150                 0.17        -0.00          2.60360
             Al 9  -- Ni 127                 0.16         0.00          2.60367
             Al 16 -- Ni 40                  0.18         0.00          2.60438
            Ni 129 -- Ni 149                 0.08        -0.00          2.60453
            Ni 55  -- Ni 57                  0.03         0.00          2.60459
            Ni 41  -- Ni 42                  0.03         0.00          2.60501
            Ni 142 -- Ni 143                 0.03        -0.00          2.60528
            Ni 53  -- Ni 54                 -0.00         0.00          2.60557
            Ni 146 -- Ni 174                 0.01         0.00          2.60568
             Al 45 -- Ni 150                 0.15         0.00          2.60569
            Ni 13  -- Ni 39                  0.01         0.00          2.60627
            Ni 54  -- Ni 59                 -0.00         0.00          2.60699
            Ni 170 -- Ni 171                -0.02         0.00          2.60793
             Al 38 -- Ni 177                 0.17         0.00          2.60794
             Al 27 -- Ni 151                 0.17        -0.00          2.60863
            Ni 71  -- Ni 90                  0.02         0.00          2.60874
            Ni 169 -- Ni 172                 0.01         0.00          2.60914
            Ni 138 -- Ni 139                -0.02         0.00          2.60921
            Ni 113 -- Ni 139                 0.01         0.00          2.60934
            Ni 172 -- Ni 177                -0.02        -0.00          2.60980
            Ni 152 -- Ni 153                 0.12        -0.00          2.60990
            Ni 47  -- Ni 163                 0.06        -0.00          2.61076
             Al 61 -- Ni 104                 0.15         0.00          2.61078
            Ni 138 -- Ni 159                 0.02         0.00          2.61082
            Ni 1   -- Ni 8                   0.03         0.00          2.61084
             Al 61 -- Ni 100                 0.18        -0.00          2.61106
            Ni 173 -- Ni 192                -0.00         0.00          2.61124
            Ni 161 -- Ni 162                -0.01         0.00          2.61152
            Ni 60  -- Ni 65                  0.01        -0.00          2.61168
             Al 25 -- Ni 49                  0.19        -0.00          2.61181
            Ni 150 -- Ni 153                -0.01        -0.00          2.61208
            Ni 129 -- Ni 132                 0.11        -0.00          2.61232
             Al 34 -- Ni 122                 0.16        -0.00          2.61272
             Al 58 -- Ni 119                 0.17        -0.00          2.61328
             Al 63 -- Ni 100                 0.17        -0.00          2.61329
             Al 53 -- Ni 137                 0.18        -0.00          2.61347
             Al 48 -- Ni 120                 0.18        -0.00          2.61365
            Ni 117 -- Ni 191                 0.08        -0.00          2.61380
            Ni 102 -- Ni 109                 0.00        -0.00          2.61386
             Al 44 -- Al 56                  0.30         0.00          2.61452
            Ni 138 -- Ni 160                 0.05        -0.00          2.61489
            Ni 65  -- Ni 148                 0.04        -0.00          2.61511
            Ni 168 -- Ni 177                 0.04        -0.00          2.61579
            Ni 121 -- Ni 173                 0.01         0.00          2.61599
            Ni 158 -- Ni 181                -0.01         0.00          2.61612
             Al 51 -- Ni 163                 0.16         0.00          2.61617
            Ni 152 -- Ni 160                 0.02        -0.00          2.61677
            Ni 140 -- Ni 141                 0.07        -0.00          2.61680
             Al 11 -- Ni 31                  0.19        -0.00          2.61702
            Ni 178 -- Ni 185                 0.08         0.00          2.61703
             Al 35 -- Ni 122                 0.18        -0.00          2.61724
            Ni 110 -- Ni 118                 0.04        -0.00          2.61774
            Ni 1   -- Ni 127                 0.02        -0.00          2.61777
             Al 9  -- Ni 144                 0.18        -0.00          2.61787
            Ni 115 -- Ni 117                 0.09        -0.00          2.61815
            Ni 151 -- Ni 152                 0.04         0.00          2.61836
            Ni 26  -- Ni 43                  0.05         0.00          2.61845
             Al 21 -- Ni 159                 0.15        -0.00          2.61850
             Al 50 -- Ni 117                 0.15         0.00          2.61907
            Ni 159 -- Ni 160                 0.09         0.00          2.61947
            Ni 178 -- Ni 179                 0.06        -0.00          2.61970
             Al 11 -- Ni 127                 0.15         0.00          2.62026
            Ni 178 -- Ni 184                 0.03         0.00          2.62136
            Ni 42  -- Ni 47                 -0.01         0.00          2.62170
            Ni 65  -- Ni 66                  0.01         0.00          2.62173
             Al 27 -- Ni 49                  0.20        -0.00          2.62187
             Al 58 -- Ni 122                 0.17         0.00          2.62205
             Al 21 -- Ni 31                  0.20         0.00          2.62269
            Ni 114 -- Ni 138                 0.01        -0.00          2.62290
             Al 38 -- Ni 178                 0.16         0.00          2.62368
            Ni 102 -- Ni 108                 0.10        -0.00          2.62430
            Ni 158 -- Ni 160                 0.11         0.00          2.62434
            Ni 37  -- Ni 39                  0.01         0.00          2.62506
             Al 19 -- Ni 151                 0.17        -0.00          2.62558
             Al 36 -- Ni 184                 0.18        -0.00          2.62595
            Ni 136 -- Ni 141                 0.01         0.00          2.62601
             Al 38 -- Ni 182                 0.16         0.00          2.62611
             Al 23 -- Ni 166                 0.15         0.00          2.62623
             Al 36 -- Ni 122                 0.17        -0.00          2.62700
            Ni 25  -- Ni 126                -0.00         0.00          2.62798
             Al 46 -- Ni 145                 0.11        -0.00          2.62818
             Al 19 -- Ni 31                  0.17        -0.00          2.62823
             Al 5  -- Ni 7                   0.18         0.00          2.62904
             Al 52 -- Ni 37                  0.15        -0.00          2.62971
             Al 5  -- Ni 115                 0.15         0.00          2.63034
            Ni 154 -- Ni 155                 0.06        -0.00          2.63203
             Al 57 -- Ni 97                  0.14         0.00          2.63231
            Ni 155 -- Ni 188                 0.03         0.00          2.63266
            Ni 156 -- Ni 157                 0.12        -0.00          2.63388
             Al 40 -- Ni 143                 0.16        -0.00          2.63424
             Al 39 -- Ni 178                 0.18         0.00          2.63489
            Ni 108 -- Ni 111                 0.02         0.00          2.63575
            Ni 123 -- Ni 124                 0.01        -0.00          2.63587
            Ni 170 -- Ni 175                -0.04         0.00          2.63887
             Al 37 -- Ni 190                 0.15         0.00          2.63903
            Ni 114 -- Ni 133                -0.03        -0.00          2.64035
            Ni 49  -- Ni 75                  0.05         0.00          2.64077
            Ni 156 -- Ni 162                 0.13        -0.00          2.64081
            Ni 162 -- Ni 164                 0.01         0.00          2.64093
            Ni 151 -- Ni 181                -0.01         0.00          2.64507
             Al 3  -- Ni 7                   0.18        -0.00          2.64517
            Ni 7   -- Ni 107                 0.01        -0.00          2.64531
             Al 50 -- Al 58                  0.24         0.00          2.64579
             Al 13 -- Ni 139                 0.16        -0.00          2.64636
            Ni 7   -- Ni 8                   0.05         0.00          2.64709
             Al 59 -- Ni 7                   0.15         0.00          2.64817
             Al 48 -- Al 50                  0.25         0.00          2.64855
             Al 23 -- Ni 159                 0.13        -0.00          2.64881
             Al 42 -- Ni 153                 0.15         0.00          2.64917
             Al 33 -- Ni 122                 0.15         0.00          2.65043
             Al 43 -- Ni 160                 0.15        -0.00          2.65145
             Al 44 -- Ni 153                 0.12         0.00          2.65166
             Al 35 -- Ni 189                 0.15        -0.00          2.65187
             Al 35 -- Ni 190                 0.13         0.00          2.65196
             Al 37 -- Ni 122                 0.15        -0.00          2.65337
             Al 52 -- Ni 31                  0.15         0.00          2.65494
             Al 48 -- Al 49                  0.26         0.00          2.65547
            Ni 106 -- Ni 135                -0.01        -0.00          2.65680
            Ni 31  -- Ni 32                  0.04        -0.00          2.65716
             Al 57 -- Ni 132                 0.11         0.00          2.65745
            Ni 161 -- Ni 170                 0.04        -0.00          2.66194
            Ni 7   -- Ni 9                   0.06        -0.00          2.66345
             Al 38 -- Al 45                  0.23         0.00          2.66388
             Al 42 -- Al 43                  0.25         0.00          2.66741
             Al 50 -- Ni 119                 0.13         0.00          2.66858
             Al 23 -- Al 49                  0.24         0.00          2.67008
            Ni 31  -- Ni 57                  0.05         0.00          2.67123
            Ni 148 -- Ni 150                 0.08        -0.00          2.67178
            Ni 149 -- Ni 150                 0.02         0.00          2.68003
            Ni 168 -- Ni 169                 0.02        -0.00          2.68297
             Al 46 -- Ni 150                 0.11         0.00          2.69272
             Al 44 -- Al 45                  0.21         0.00          2.69997
             Al 5  -- Al 59                  0.20         0.00          2.70946
             Al 45 -- Al 62                  0.18        -0.00          2.71639
             Al 42 -- Al 45                  0.21         0.00          2.71692
            Ni 164 -- Ni 170                 0.03         0.00          2.71898
             Al 11 -- Al 55                  0.20         0.00          2.72079
             Al 36 -- Al 37                  0.22         0.00          2.72172
             Al 56 -- Ni 146                 0.07         0.00          2.72810
             Al 34 -- Al 35                  0.20         0.00          2.72900
             Al 55 -- Al 59                  0.21        -0.00          2.72986
             Al 56 -- Ni 151                 0.08         0.00          2.73091
             Al 21 -- Al 52                  0.20         0.00          2.73895
             Al 33 -- Al 58                  0.20         0.00          2.74113
             Al 34 -- Al 37                  0.19         0.00          2.74389
             Al 44 -- Al 46                  0.21         0.00          2.74574
             Al 61 -- Al 63                  0.20        -0.00          2.74638
             Al 41 -- Al 43                  0.18        -0.00          2.74838
             Al 33 -- Al 35                  0.20         0.00          2.75078
             Al 52 -- Al 55                  0.20        -0.00          2.75382
             Al 17 -- Al 56                  0.17         0.00          2.75698
             Al 56 -- Ni 49                  0.11        -0.00          2.75766
             Al 47 -- Al 62                  0.17         0.00          2.76662
             Al 53 -- Al 54                  0.18        -0.00          2.77590
             Al 40 -- Al 51                  0.20         0.00          2.77692
             Al 15 -- Al 49                  0.19         0.00          2.77771
             Al 19 -- Al 56                  0.17         0.00          2.77895
             Al 42 -- Ni 150                 0.11        -0.00          2.78845
             Al 43 -- Al 54                  0.16        -0.00          2.78883
             Al 57 -- Al 63                  0.15        -0.00          2.79947
             Al 41 -- Al 53                  0.17         0.00          2.80140
             Al 44 -- Al 62                  0.15         0.00          2.81810
             Al 13 -- Al 59                  0.16         0.00          2.82923
             Al 13 -- Al 52                  0.17         0.00          2.84188
             Al 41 -- Al 54                  0.12        -0.00          2.87778
             Al 46 -- Al 47                  0.13        -0.00          2.88139
             Al 13 -- Al 55                  0.08         0.00          2.94641
================================================================================
 

Writing analysis data to castep.castep_bin

Writing model to castep.check
 
 A BibTeX formatted list of references used in this run has been written to 
 castep.bib
 
Initialisation time =     20.86 s
Calculation time    =  21829.25 s
Finalisation time   =     13.67 s
Total time          =  21863.79 s
Peak Memory Use     = 3973676 kB
 
Overall parallel efficiency rating: Satisfactory (65%)
 
Data was distributed by:-
G-vector (128-way); efficiency rating: Satisfactory (67%)
