 +-------------------------------------------------+
 |                                                 |
 |      CCC   AA    SSS  TTTTT  EEEEE  PPPP        |
 |     C     A  A  S       T    E      P   P       |
 |     C     AAAA   SS     T    EEE    PPPP        |
 |     C     A  A     S    T    E      P           |
 |      CCC  A  A  SSS     T    EEEEE  P           |
 |                                                 |
 +-------------------------------------------------+
 |                                                 |
 | Welcome to Academic Release CASTEP version 20.11|          
 | Ab Initio Total Energy Program                  |
 |                                                 |
 | Authors:                                        |
 | M. Segall, M. Probert, C. Pickard, P. Hasnip,   |
 | S. Clark, K. Refson, J. R. Yates, M. Payne      |
 |                                                 |
 | Contributors:                                   |
 | P. Lindan, P. Haynes, J. White, V. Milman,      |
 | N. Govind, M. Gibson, P. Tulip, V. Cocula,      |
 | B. Montanari, D. Quigley, M. Glover,            |
 | L. Bernasconi, A. Perlov, M. Plummer,           |
 | E. McNellis, J. Meyer, J. Gale, D. Jochym       |
 | J. Aarons, B. Walker, R. Gillen, D. Jones       |
 | T. Green, I. J. Bush, C. J. Armstrong,          |
 | E. J. Higgins, E. L. Brown, M. S. McFly,        |
 | J. Wilkins, B-C. Shih, P. J. P. Byrne,          |
 | R. J. Maurer, J. C. Womack, J. Dziedzic,        |
 | J. R. Kermode, A. Bartok-Partay                 |
 |                                                 |
 | Copyright (c) 2000 - 2020                       |
 |                                                 |
 |     Distributed under license from Cambridge    |
 |     Enterprise for academic use only.           |
 |                                                 |
 | Please cite                                     |
 |                                                 |
 |     "First principles methods using CASTEP"     |
 |                                                 |
 |         Zeitschrift fuer Kristallographie       |
 |           220(5-6) pp. 567-570 (2005)           |
 |                                                 |
 | S. J. Clark, M. D. Segall, C. J. Pickard,       |
 | P. J. Hasnip, M. J. Probert, K. Refson,         |
 | M. C. Payne                                     |
 |                                                 |
 |       in all publications arising from          |
 |              your use of CASTEP                 |
 |                                                 |
 +-------------------------------------------------+
 |                                                 |
 |              http://www.castep.org              |
 |                                                 |
 +-------------------------------------------------+
 
 
 
 Compiled for linux_x86_64_ifort on Wed, 25 Aug 2021 18:50:38 +0100
 from code version e772bf432+  HEAD  Sat Apr 3 17:41:32 2021 +0100
 Compiler: Intel Fortran 19.0.5.281; Optimisation: fast
 MATHLIBS: Intel MKL(2019.0.5) (LAPACK version 3.7.0)
 FFT Lib : mkl
 Fundamental constants values: CODATA 2014
 
 Run started: Thu, 09 Mar 2023 00:47:34 +0000
 
 Atomic calculation performed for Al: 1s2 2s2 2p6 3s2 3p1
 
 Converged in 52 iterations to an ae energy of -6606.982 eV
 
   ============================================================                
   | Pseudopotential Report - Date of generation  9-03-2023   |                
   ------------------------------------------------------------                
   | Element: Al Ionic charge:  3.00 Level of theory: RPBE    |                
   | Atomic Solver: Koelling-Harmon                           |                
   |                                                          |                
   |               Reference Electronic Structure             |                
   |         Orbital         Occupation         Energy        |                
   |            3s              2.000           -0.284        |                
   |            3p              1.000           -0.100        |                
   |                                                          |                
   |                 Pseudopotential Definition               |                
   |        Beta     l      e      Rc     scheme   norm       |                
   |          1      0   -0.284   2.192     qc      0         |                
   |          2      0    0.250   2.192     qc      0         |                
   |          3      1   -0.100   2.192     qc      0         |                
   |          4      1    0.250   2.192     qc      0         |                
   |          5      2    0.000   2.000     qc      0         |                
   |          6      2    0.250   2.000     qc      0         |                
   |         loc     3    0.000   2.192     pn      0         |                
   |                                                          |                
   | Augmentation charge Rinner = 1.398                       |                
   | Partial core correction Rc = 1.398                       |                
   ------------------------------------------------------------                
   | "3|2.2|2.2|1.4|4|5|5|30:31:32U2U2"                       |                
   ------------------------------------------------------------                
   |      Author: Chris J. Pickard, Cambridge University      |                
   ============================================================                
 
 Atomic calculation performed for Ni: 1s2 2s2 2p6 3s2 3p6 3d8 4s2
 
 Converged in 109 iterations to an ae energy of -41381.414 eV
 
   ============================================================                
   | Pseudopotential Report - Date of generation  9-03-2023   |                
   ------------------------------------------------------------                
   | Element: Ni Ionic charge: 10.00 Level of theory: RPBE    |                
   | Atomic Solver: Koelling-Harmon                           |                
   |                                                          |                
   |               Reference Electronic Structure             |                
   |         Orbital         Occupation         Energy        |                
   |            3d              8.000           -0.324        |                
   |            4s              2.000           -0.204        |                
   |                                                          |                
   |                 Pseudopotential Definition               |                
   |        Beta     l      e      Rc     scheme   norm       |                
   |          1      0   -0.204   2.401     qc      0         |                
   |          2      0    0.250   2.401     qc      0         |                
   |          3      1    0.000   2.401     qc      0         |                
   |          4      1    0.250   2.401     qc      0         |                
   |          5      2   -0.324   1.999     qc      0         |                
   |          6      2    0.250   1.999     qc      0         |                
   |         loc     3    0.000   2.401     pn      0         |                
   |                                                          |                
   | Augmentation charge Rinner = 1.001                       |                
   | Partial core correction Rc = 1.001                       |                
   ------------------------------------------------------------                
   | "3|2.4|2.4|1.0|8|9|10|40:41:32U2U2(qc=5.5)"              |                
   ------------------------------------------------------------                
   |      Author: Chris J. Pickard, Cambridge University      |                
   ============================================================                
 
 Pseudo atomic calculation performed for Al 3s2 3p1
 
 Converged in 13 iterations to a total energy of -107.6592 eV
 
 Pseudo atomic calculation performed for Ni 3d8 4s2
 
 Converged in 41 iterations to a total energy of -1369.7891 eV
 Calculation parallelised over 48 processes.
 Data is distributed by G-vector(48-way)

 ************************************ Title ************************************
 

 ***************************** General Parameters ******************************
  
 output verbosity                               : normal  (1)
 write checkpoint data to                       : castep.check
 type of calculation                            : geometry optimization
 stress calculation                             : off
 density difference calculation                 : off
 electron localisation func (ELF) calculation   : off
 Hirshfeld analysis                             : off
 molecular orbital projected DOS                : off
 deltaSCF calculation                           : off
 unlimited duration calculation
 timing information                             : on
 memory usage estimate                          : on
 write extra output files                       : on
 write final potential to formatted file        : off
 write final density to formatted file          : off
 write BibTeX reference list                    : on
 write OTFG pseudopotential files               : on
 write electrostatic potential file             : on
 write bands file                               : on
 checkpoint writing                             : both castep_bin and check files
  
 output         length unit                     : A
 output           mass unit                     : amu
 output           time unit                     : ps
 output         charge unit                     : e
 output           spin unit                     : hbar/2
 output         energy unit                     : eV
 output          force unit                     : eV/A
 output       velocity unit                     : A/ps
 output       pressure unit                     : GPa
 output     inv_length unit                     : 1/A
 output      frequency unit                     : cm-1
 output force constant unit                     : eV/A**2
 output         volume unit                     : A**3
 output   IR intensity unit                     : (D/A)**2/amu
 output         dipole unit                     : D
 output         efield unit                     : eV/A/e
 output        entropy unit                     : J/mol/K
 output    efield chi2 unit                     : pm/V
  
 wavefunctions paging                           : none
 random number generator seed                   : randomised (4735085)
 data distribution                              : optimal for this architecture
 optimization strategy                          : maximize speed(+++)

 *********************** Exchange-Correlation Parameters ***********************
  
 using functional                               : revised Perdew Burke Ernzerhof
 relativistic treatment                         : Koelling-Harmon
 DFT+D: Semi-empirical dispersion correction    : off

 ************************* Pseudopotential Parameters **************************
  
 pseudopotential representation                 : reciprocal space
 <beta|phi> representation                      : reciprocal space
 spin-orbit coupling                            : off

 **************************** Basis Set Parameters *****************************
  
 plane wave basis set cut-off                   :   900.0000   eV
 size of standard grid                          :     1.7500
 size of   fine   gmax                          :    26.8966   1/A
 finite basis set correction                    : none

 **************************** Electronic Parameters ****************************
  
 number of  electrons                           :  2109.    
 net charge of system                           :  0.000    
 net spin   of system                           :  1.000    
 number of  up  spins                           :  1055.    
 number of down spins                           :  1054.    
 treating system as spin-polarized
 number of bands                                :       1167

 ********************* Electronic Minimization Parameters **********************
  
 Method: Treating system as metallic with density mixing treatment of electrons,
         and number of  SD  steps               :          1
         and number of  CG  steps               :          4
  
 total energy / atom convergence tol.           : 0.1000E-05   eV
 eigen-energy convergence tolerance             : 0.2185E-06   eV
 max force / atom convergence tol.              : ignored
 convergence tolerance window                   :          3   cycles
 max. number of SCF cycles                      :        200
 number of fixed-spin iterations                :         10
 smearing scheme                                : Gaussian
 smearing width                                 : 0.2000       eV
 Fermi energy convergence tolerance             : 0.2721E-13   eV
 periodic dipole correction                     : NONE
 periodically dump wavefunctions to             : castep.wvfn
 dump wavefunctions every                       :          1   SCF cycles

 ************************** Density Mixing Parameters **************************
  
 density-mixing scheme                          : Pulay
 max. length of mixing history                  :         20
 charge density mixing amplitude                : 0.8000    
   spin density mixing amplitude                :  2.000    
 cut-off energy for mixing                      :  900.0       eV

 *********************** Population Analysis Parameters ************************
  
 Population analysis with cutoff                :  3.000       A
 Population analysis output                     : summary and pdos components

 ********************** Geometry Optimization Parameters ***********************
  
 optimization method                            : LBFGS
 max. no. of LBFGS updates                      : unbounded
 variable cell method                           : fixed basis quality
 max. number of steps                           :         30
 estimated bulk modulus                         :  500.0       GPa
 estimated <frequency>                          :  1668.       cm-1
 geom line minimiser                            : on
 with line minimiser tolerance                  :     0.4000
  with spin fully able to relax for all steps
 total energy convergence tolerance             : 0.2000E-04   eV/atom
        max ionic |force| tolerance             : 0.5000E-01   eV/A
 max ionic |displacement| tolerance             : 0.1000E-02   A
   max |stress component| tolerance             : 0.1000       GPa
 convergence tolerance window                   :          2   steps
 backup results every                           :          5   steps
 write geom trajectory file                     : on

 *******************************************************************************
  
 
                           -------------------------------
                                      Unit Cell
                           -------------------------------
        Real Lattice(A)                      Reciprocal Lattice(1/A)
    14.4648280     0.0000000     0.0000000        0.434376773   0.000000000   0.000000000
     0.0000000    14.4648280     0.0000000        0.000000000   0.434376773   0.000000000
     0.0000000     0.0000000    14.4648280        0.000000000   0.000000000   0.434376773
 
                       Lattice parameters(A)       Cell Angles
                    a =     14.464828          alpha =   90.000000
                    b =     14.464828          beta  =   90.000000
                    c =     14.464828          gamma =   90.000000
 
                       Current cell volume =          3026.494030       A**3
                                   density =             4.285146   AMU/A**3
                                           =             7.115653     g/cm^3
 
                           -------------------------------
                                     Cell Contents
                           -------------------------------
                         Total number of ions in cell =  255
                      Total number of species in cell =    2
                        Max number of any one species =  192
 
            xxxxxxxxxxxxxxxxxxxxxxxxxxxxxxxxxxxxxxxxxxxxxxxxxxxxxxxxxxxx
            x  Element    Atom        Fractional coordinates of atoms  x
            x            Number           u          v          w      x
            x----------------------------------------------------------x
            x  Al           1         0.570702   0.307415   0.814002   x 
            x  Al           2         0.818248   0.309211   0.812752   x 
            x  Al           3         0.569895   0.559266   0.815375   x 
            x  Al           4         0.817595   0.558239   0.813191   x 
            x  Al           5         0.575324   0.809637   0.809877   x 
            x  Al           6         0.819101   0.807801   0.812322   x 
            x  Al           7         0.572254   0.058451   0.813003   x 
            x  Al           8         0.819968   0.059149   0.811973   x 
            x  Al           9         0.569614   0.305957   0.062225   x 
            x  Al          10         0.817813   0.308659   0.063475   x 
            x  Al          11         0.573358   0.554872   0.061433   x 
            x  Al          12         0.816696   0.558098   0.063513   x 
            x  Al          13         0.577345   0.814382   0.062679   x 
            x  Al          14         0.819193   0.808328   0.063090   x 
            x  Al          15         0.574363   0.057124   0.058909   x 
            x  Al          16         0.819968   0.058973   0.062898   x 
            x  Al          17         0.570278   0.306331   0.311667   x 
            x  Al          18         0.817079   0.309542   0.312891   x 
            x  Al          19         0.567348   0.559720   0.311047   x 
            x  Al          20         0.816093   0.558299   0.312630   x 
            x  Al          21         0.574659   0.809408   0.315776   x 
            x  Al          22         0.818576   0.807352   0.313560   x 
            x  Al          23         0.577143   0.057429   0.318815   x 
            x  Al          24         0.819627   0.058863   0.313711   x 
            x  Al          25         0.571637   0.308639   0.563524   x 
            x  Al          26         0.817119   0.310222   0.562754   x 
            x  Al          27         0.568939   0.558951   0.564409   x 
            x  Al          28         0.816563   0.557895   0.562586   x 
            x  Al          29         0.570710   0.808505   0.564017   x 
            x  Al          30         0.819228   0.807166   0.563077   x 
            x  Al          31         0.572556   0.057949   0.562642   x 
            x  Al          32         0.820037   0.059093   0.563512   x 
            x  Al          33         0.328669   0.182480   0.683944   x 
            x  Al          34         0.056305   0.057826   0.557585   x 
            x  Al          35         0.192985   0.190299   0.554629   x 
            x  Al          36         0.321479   0.935460   0.689213   x 
            x  Al          37         0.192691   0.929547   0.554593   x 
            x  Al          38         0.318585   0.689965   0.693809   x 
            x  Al          39         0.074760   0.687574   0.679137   x 
            x  Al          40         0.198673   0.188675   0.322252   x 
            x  Al          41         0.067328   0.805449   0.315466   x 
            x  Al          42         0.326110   0.684983   0.438505   x 
            x  Al          43         0.194383   0.667458   0.313207   x 
            x  Al          44         0.337222   0.428736   0.430331   x 
            x  Al          45         0.328539   0.555026   0.569529   x 
            x  Al          46         0.192231   0.432842   0.306424   x 
            x  Al          47         0.063836   0.435391   0.438068   x 
            x  Al          48         0.317529   0.060385   0.061867   x 
            x  Al          49         0.440407   0.057062   0.194604   x 
            x  Al          50         0.185868   0.054894   0.935114   x 
            x  Al          51         0.068540   0.185182   0.191377   x 
            x  Al          52         0.433478   0.814678   0.189332   x 
            x  Al          53         0.070950   0.945106   0.191923   x 
            x  Al          54         0.201476   0.808505   0.181715   x 
            x  Al          55         0.432156   0.677790   0.059855   x 
            x  Al          56         0.334543   0.430843   0.188806   x 
            x  Al          57         0.188514   0.425178   0.063051   x 
            x  Al          58         0.187108   0.186350   0.807233   x 
            x  Al          59         0.434365   0.816940   0.935046   x 
            x  Al          60         0.191725   0.811561   0.937430   x 
            x  Al          61         0.191590   0.426157   0.805285   x 
            x  Al          62         0.193536   0.427300   0.570952   x 
            x  Al          63         0.188915   0.565167   0.934070   x 
            x  Ni           1         0.568088   0.431578   0.937416   x 
            x  Ni           2         0.694191   0.307834   0.938157   x 
            x  Ni           3         0.693654   0.433456   0.813677   x 
            x  Ni           4         0.817445   0.433624   0.938627   x 
            x  Ni           5         0.942284   0.309354   0.938033   x 
            x  Ni           6         0.942028   0.434083   0.812840   x 
            x  Ni           7         0.564547   0.687878   0.941091   x 
            x  Ni           8         0.693039   0.558932   0.938123   x 
            x  Ni           9         0.693548   0.683087   0.813970   x 
            x  Ni          10         0.818579   0.683033   0.938119   x 
            x  Ni          11         0.941938   0.558345   0.938229   x 
            x  Ni          12         0.942520   0.682762   0.812724   x 
            x  Ni          13         0.569279   0.932619   0.935577   x 
            x  Ni          14         0.695888   0.808934   0.936998   x 
            x  Ni          15         0.696479   0.934215   0.811710   x 
            x  Ni          16         0.820194   0.933583   0.937128   x 
            x  Ni          17         0.942730   0.807888   0.937682   x 
            x  Ni          18         0.943295   0.933131   0.812281   x 
            x  Ni          19         0.569016   0.182495   0.937279   x 
            x  Ni          20         0.696295   0.058335   0.936464   x 
            x  Ni          21         0.694848   0.183638   0.812464   x 
            x  Ni          22         0.819212   0.183994   0.937601   x 
            x  Ni          23         0.943204   0.058867   0.937520   x 
            x  Ni          24         0.943039   0.184554   0.812506   x 
            x  Ni          25         0.562014   0.432037   0.190817   x 
            x  Ni          26         0.691780   0.307451   0.187567   x 
            x  Ni          27         0.692017   0.431826   0.064125   x 
            x  Ni          28         0.816727   0.433650   0.188262   x 
            x  Ni          29         0.942214   0.309355   0.188368   x 
            x  Ni          30         0.941761   0.433967   0.063363   x 
            x  Ni          31         0.563827   0.688619   0.183091   x 
            x  Ni          32         0.690690   0.558876   0.187669   x 
            x  Ni          33         0.693695   0.683937   0.062809   x 
            x  Ni          34         0.817660   0.682954   0.188173   x 
            x  Ni          35         0.941800   0.558440   0.188238   x 
            x  Ni          36         0.942239   0.682955   0.063236   x 
            x  Ni          37         0.568148   0.934988   0.189942   x 
            x  Ni          38         0.694882   0.809442   0.188649   x 
            x  Ni          39         0.697455   0.934908   0.062684   x 
            x  Ni          40         0.820070   0.933481   0.188599   x 
            x  Ni          41         0.942644   0.807812   0.188407   x 
            x  Ni          42         0.942992   0.933267   0.062979   x 
            x  Ni          43         0.568967   0.177784   0.187810   x 
            x  Ni          44         0.695433   0.057658   0.188494   x 
            x  Ni          45         0.694968   0.182755   0.062705   x 
            x  Ni          46         0.818727   0.183906   0.188194   x 
            x  Ni          47         0.943253   0.058816   0.188466   x 
            x  Ni          48         0.942751   0.184224   0.063087   x 
            x  Ni          49         0.563632   0.433798   0.432814   x 
            x  Ni          50         0.692610   0.309596   0.437733   x 
            x  Ni          51         0.690946   0.433684   0.311876   x 
            x  Ni          52         0.816568   0.434358   0.437466   x 
            x  Ni          53         0.942362   0.309925   0.437893   x 
            x  Ni          54         0.941929   0.434238   0.313041   x 
            x  Ni          55         0.567433   0.684531   0.439125   x 
            x  Ni          56         0.690523   0.558328   0.437358   x 
            x  Ni          57         0.691782   0.682959   0.312032   x 
            x  Ni          58         0.817363   0.682052   0.437733   x 
            x  Ni          59         0.942036   0.558365   0.437730   x 
            x  Ni          60         0.942251   0.682714   0.313172   x 
            x  Ni          61         0.570514   0.932731   0.440247   x 
            x  Ni          62         0.695261   0.807633   0.439485   x 
            x  Ni          63         0.696986   0.933159   0.314372   x 
            x  Ni          64         0.820094   0.932784   0.438920   x 
            x  Ni          65         0.942847   0.807340   0.438125   x 
            x  Ni          66         0.943115   0.933041   0.313578   x 
            x  Ni          67         0.571297   0.182276   0.439185   x 
            x  Ni          68         0.697558   0.058310   0.440095   x 
            x  Ni          69         0.695489   0.183733   0.313335   x 
            x  Ni          70         0.818902   0.185017   0.438513   x 
            x  Ni          71         0.943178   0.058931   0.438289   x 
            x  Ni          72         0.942577   0.184496   0.313333   x 
            x  Ni          73         0.568011   0.433795   0.690688   x 
            x  Ni          74         0.693262   0.308980   0.688388   x 
            x  Ni          75         0.690438   0.434405   0.562155   x 
            x  Ni          76         0.817124   0.434072   0.687513   x 
            x  Ni          77         0.942559   0.309807   0.687453   x 
            x  Ni          78         0.942134   0.434288   0.562558   x 
            x  Ni          79         0.568196   0.684298   0.688860   x 
            x  Ni          80         0.692465   0.558436   0.688823   x 
            x  Ni          81         0.693192   0.682537   0.563296   x 
            x  Ni          82         0.818073   0.682290   0.687961   x 
            x  Ni          83         0.942222   0.558272   0.687658   x 
            x  Ni          84         0.942406   0.682376   0.562739   x 
            x  Ni          85         0.569604   0.934273   0.687079   x 
            x  Ni          86         0.695700   0.808118   0.687124   x 
            x  Ni          87         0.696006   0.933045   0.563646   x 
            x  Ni          88         0.819998   0.933424   0.687443   x 
            x  Ni          89         0.942904   0.807527   0.687625   x 
            x  Ni          90         0.943646   0.933005   0.562946   x 
            x  Ni          91         0.568742   0.182422   0.688037   x 
            x  Ni          92         0.695334   0.058895   0.687501   x 
            x  Ni          93         0.694899   0.184234   0.563687   x 
            x  Ni          94         0.819137   0.184668   0.687657   x 
            x  Ni          95         0.943695   0.058990   0.687466   x 
            x  Ni          96         0.943077   0.184936   0.562792   x 
            x  Ni          97         0.071317   0.430809   0.933921   x 
            x  Ni          98         0.191720   0.305945   0.934623   x 
            x  Ni          99         0.064556   0.305690   0.808628   x 
            x  Ni         100         0.312299   0.432130   0.934952   x 
            x  Ni         101         0.442914   0.305783   0.938033   x 
            x  Ni         102         0.317119   0.557907   0.811781   x 
            x  Ni         103         0.320131   0.304304   0.811450   x 
            x  Ni         104         0.065612   0.560653   0.806466   x 
            x  Ni         105         0.065438   0.687323   0.936656   x 
            x  Ni         106         0.314960   0.684748   0.933465   x 
            x  Ni         107         0.442376   0.558219   0.936715   x 
            x  Ni         108         0.444621   0.686769   0.815742   x 
            x  Ni         109         0.190068   0.686596   0.810803   x 
            x  Ni         110         0.065978   0.934457   0.935739   x 
            x  Ni         111         0.316486   0.813057   0.812325   x 
            x  Ni         112         0.189886   0.936595   0.807728   x 
            x  Ni         113         0.313687   0.938977   0.934985   x 
            x  Ni         114         0.318276   0.811208   0.059655   x 
            x  Ni         115         0.444852   0.936024   0.812023   x 
            x  Ni         116         0.065544   0.181140   0.934141   x 
            x  Ni         117         0.315620   0.061884   0.809533   x 
            x  Ni         118         0.066719   0.058582   0.805866   x 
            x  Ni         119         0.314686   0.179893   0.935736   x 
            x  Ni         120         0.443286   0.057081   0.937461   x 
            x  Ni         121         0.445097   0.181875   0.813433   x 
            x  Ni         122         0.192978   0.061183   0.678181   x 
            x  Ni         123         0.065424   0.430645   0.187723   x 
            x  Ni         124         0.194668   0.307077   0.188932   x 
            x  Ni         125         0.063987   0.304270   0.061891   x 
            x  Ni         126         0.447654   0.303076   0.186236   x 
            x  Ni         127         0.443908   0.432496   0.059355   x 
            x  Ni         128         0.319992   0.306570   0.061715   x 
            x  Ni         129         0.071864   0.683639   0.190034   x 
            x  Ni         130         0.194034   0.552362   0.183872   x 
            x  Ni         131         0.192450   0.682991   0.061111   x 
            x  Ni         132         0.066934   0.557831   0.061332   x 
            x  Ni         133         0.316435   0.680137   0.188005   x 
            x  Ni         134         0.445798   0.560138   0.183886   x 
            x  Ni         135         0.314493   0.552771   0.059177   x 
            x  Ni         136         0.066976   0.060706   0.063433   x 
            x  Ni         137         0.070336   0.813708   0.066445   x 
            x  Ni         138         0.315041   0.937902   0.189781   x 
            x  Ni         139         0.444067   0.936401   0.063775   x 
            x  Ni         140         0.191265   0.937627   0.063135   x 
            x  Ni         141         0.194725   0.063977   0.191063   x 
            x  Ni         142         0.191125   0.184129   0.061116   x 
            x  Ni         143         0.317993   0.182943   0.189303   x 
            x  Ni         144         0.443764   0.178602   0.062822   x 
            x  Ni         145         0.065297   0.309470   0.314431   x 
            x  Ni         146         0.450588   0.305316   0.436538   x 
            x  Ni         147         0.325649   0.310471   0.311240   x 
            x  Ni         148         0.067108   0.678452   0.438456   x 
            x  Ni         149         0.064721   0.555900   0.313980   x 
            x  Ni         150         0.200300   0.547796   0.441550   x 
            x  Ni         151         0.446824   0.560298   0.438078   x 
            x  Ni         152         0.445066   0.685622   0.310209   x 
            x  Ni         153         0.325758   0.552976   0.312505   x 
            x  Ni         154         0.065141   0.931756   0.436097   x 
            x  Ni         155         0.193446   0.802496   0.434202   x 
            x  Ni         156         0.191679   0.933012   0.314960   x 
            x  Ni         157         0.318337   0.931754   0.438203   x 
            x  Ni         158         0.445860   0.809523   0.436535   x 
            x  Ni         159         0.444345   0.933500   0.314859   x 
            x  Ni         160         0.316074   0.806006   0.313350   x 
            x  Ni         161         0.065560   0.186301   0.436459   x 
            x  Ni         162         0.191401   0.059276   0.440844   x 
            x  Ni         163         0.068549   0.062388   0.315854   x 
            x  Ni         164         0.320947   0.185993   0.439829   x 
            x  Ni         165         0.446306   0.057519   0.437190   x 
            x  Ni         166         0.445745   0.180994   0.314112   x 
            x  Ni         167         0.318080   0.059625   0.317553   x 
            x  Ni         168         0.066461   0.431438   0.684557   x 
            x  Ni         169         0.194922   0.302889   0.684818   x 
            x  Ni         170         0.195572   0.318186   0.436800   x 
            x  Ni         171         0.063931   0.309017   0.558213   x 
            x  Ni         172         0.320752   0.431442   0.689011   x 
            x  Ni         173         0.447874   0.307737   0.689050   x 
            x  Ni         174         0.448076   0.432543   0.564194   x 
            x  Ni         175         0.324241   0.309962   0.562124   x 
            x  Ni         176         0.067214   0.810940   0.808140   x 
            x  Ni         177         0.194462   0.558439   0.687352   x 
            x  Ni         178         0.199944   0.680090   0.560120   x 
            x  Ni         179         0.066468   0.557298   0.561968   x 
            x  Ni         180         0.442672   0.431837   0.815453   x 
            x  Ni         181         0.443716   0.684734   0.565903   x 
            x  Ni         182         0.445398   0.559962   0.693286   x 
            x  Ni         183         0.068184   0.932511   0.680099   x 
            x  Ni         184         0.194826   0.811526   0.684257   x 
            x  Ni         185         0.066732   0.807100   0.557602   x 
            x  Ni         186         0.445035   0.810625   0.690327   x 
            x  Ni         187         0.444839   0.933843   0.562613   x 
            x  Ni         188         0.321266   0.809452   0.562905   x 
            x  Ni         189         0.066450   0.183163   0.680205   x 
            x  Ni         190         0.320343   0.057854   0.560935   x 
            x  Ni         191         0.446349   0.057554   0.687457   x 
            x  Ni         192         0.447077   0.182443   0.561490   x 
            xxxxxxxxxxxxxxxxxxxxxxxxxxxxxxxxxxxxxxxxxxxxxxxxxxxxxxxxxxxx
 
 
                         No user defined ionic velocities
 
                           -------------------------------
                                   Details of Species
                           -------------------------------
 
                               Mass of species in AMU
                                    Al   26.9815400
                                    Ni   58.6934000
 
                          Electric Quadrupole Moment (Barn)
                                    Al    0.1466000 Isotope 27
                                    Ni    0.1620000 Isotope 61
 
                          Files used for pseudopotentials:
                                    Al 3|2.2|2.2|1.4|4|5|5|30:31:32U2U2
                                    Ni 3|2.4|2.4|1.0|8|9|10|40:41:32U2U2(qc=5.5)
 
                           -------------------------------
                              k-Points For BZ Sampling
                           -------------------------------
                       MP grid size for SCF calculation is  1  1  1
                            with an offset of   0.000  0.000  0.000
                       Number of kpoints used =             1
 
                           -------------------------------
                               Symmetry and Constraints
                           -------------------------------
 
                      Maximum deviation from symmetry =  0.00000         ANG
 
                      Number of symmetry operations   =           1
                      Number of ionic constraints     =           3
                      Point group of crystal =     1: C1, 1, 1
                      Space group of crystal =     1: P1, P 1
 
             Set iprint > 1 for details on symmetry rotations/translations
 
                         Centre of mass is constrained
             Set iprint > 1 for details of linear ionic constraints
 
                         Number of cell constraints= 6
                         Cell constraints are:  0 0 0 0 0 0
 
                         External pressure/stress (GPa)
                          0.00000   0.00000   0.00000
                                    0.00000   0.00000
                                              0.00000
  
+---------------- MEMORY AND SCRATCH DISK ESTIMATES PER PROCESS --------------+
|                                                     Memory          Disk    |
| Baseline code, static data and system overhead      622.0 MB         0.0 MB |
| BLAS internal memory storage                          0.0 MB         0.0 MB |
| Model and support data                              741.5 MB         0.0 MB |
| Electronic energy minimisation requirements         236.0 MB         0.0 MB |
| Force calculation requirements                        7.9 MB         0.0 MB |
|                                               ----------------------------- |
| Approx. total storage required per process         1599.5 MB         0.0 MB |
|                                                                             |
| Requirements will fluctuate during execution and may exceed these estimates |
+-----------------------------------------------------------------------------+
Calculating total energy with cut-off of  900.000 eV.
------------------------------------------------------------------------ <-- SCF
SCF loop      Energy           Fermi           Energy gain       Timer   <-- SCF
                               energy          per atom          (sec)   <-- SCF
------------------------------------------------------------------------ <-- SCF
Initial  -2.19150908E+005  0.00000000E+000                        20.73  <-- SCF
      1  -2.63677260E+005  7.13557750E+000   1.74613145E+002     108.12  <-- SCF
      2  -2.70652223E+005  3.64253476E+000   2.73527963E+001     189.82  <-- SCF
      3  -2.71370757E+005  3.53548740E+000   2.81778013E+000     272.16  <-- SCF
      4  -2.71426407E+005  3.65378548E+000   2.18234883E-001     347.66  <-- SCF
      5  -2.71711031E+005  6.62289076E+000   1.11617133E+000     442.34  <-- SCF
      6  -2.71508394E+005  5.53672021E+000  -7.94651647E-001     551.82  <-- SCF
      7  -2.71402745E+005  4.53581748E+000  -4.14309965E-001     656.50  <-- SCF
      8  -2.71386730E+005  4.41462244E+000  -6.28052354E-002     756.44  <-- SCF
      9  -2.71397632E+005  4.48449827E+000   4.27546142E-002     851.96  <-- SCF
     10  -2.71394979E+005  4.43817069E+000  -1.04061438E-002     949.28  <-- SCF
     11  -2.72222286E+005  6.14259187E+000   3.24433962E+000    1049.71  <-- SCF
     12  -2.72233892E+005  6.10205945E+000   4.55161127E-002    1133.98  <-- SCF
     13  -2.71486953E+005  4.79501765E+000  -2.92917205E+000    1262.58  <-- SCF
     14  -2.71559967E+005  4.79212390E+000   2.86327384E-001    1343.57  <-- SCF
     15  -2.71434012E+005  4.32718743E+000  -4.93941045E-001    1445.65  <-- SCF
     16  -2.71397778E+005  4.22433962E+000  -1.42095068E-001    1543.88  <-- SCF
     17  -2.71393035E+005  4.28614566E+000  -1.85988699E-002    1635.78  <-- SCF
     18  -2.71389876E+005  4.34483484E+000  -1.23886812E-002    1727.31  <-- SCF
     19  -2.71387482E+005  4.36796066E+000  -9.38645200E-003    1820.91  <-- SCF
     20  -2.71386148E+005  4.36501152E+000  -5.23364865E-003    1915.15  <-- SCF
     21  -2.71385803E+005  4.35457165E+000  -1.35079152E-003    2009.70  <-- SCF
     22  -2.71385657E+005  4.34968024E+000  -5.72388771E-004    2105.21  <-- SCF
     23  -2.71385529E+005  4.35453096E+000  -5.00895398E-004    2200.82  <-- SCF
     24  -2.71385459E+005  4.36344278E+000  -2.74268735E-004    2294.02  <-- SCF
     25  -2.71385398E+005  4.36630085E+000  -2.39814948E-004    2389.13  <-- SCF
     26  -2.71385247E+005  4.37161377E+000  -5.93568435E-004    2483.43  <-- SCF
     27  -2.71385175E+005  4.37353033E+000  -2.83436561E-004    2579.20  <-- SCF
     28  -2.71385163E+005  4.37484850E+000  -4.72499328E-005    2675.19  <-- SCF
     29  -2.71385145E+005  4.37741036E+000  -7.03460164E-005    2770.58  <-- SCF
     30  -2.71385142E+005  4.37801779E+000  -9.21439000E-006    2859.11  <-- SCF
     31  -2.71385141E+005  4.37919292E+000  -4.54601323E-006    2950.86  <-- SCF
     32  -2.71385139E+005  4.37983257E+000  -8.20970042E-006    3036.12  <-- SCF
     33  -2.71385139E+005  4.37993923E+000  -9.03266085E-008    3098.83  <-- SCF
     34  -2.71385139E+005  4.38002100E+000   3.31840058E-007    3162.26  <-- SCF
------------------------------------------------------------------------ <-- SCF
 
Integrated Spin Density     =    0.135047     hbar/2                        
Integrated |Spin Density|   =    0.215767     hbar/2                        
 
Final energy, E             =  -271380.6440004     eV
Final free energy (E-TS)    =  -271385.1391684     eV
(energies not corrected for finite basis set)
 
NB est. 0K energy (E-0.5TS)      =  -271382.8915844     eV
 

Writing analysis data to castep.castep_bin

Writing model to castep.check
 
+---------------- MEMORY AND SCRATCH DISK ESTIMATES PER PROCESS --------------+
|                                                     Memory          Disk    |
| Model and support data                              750.6 MB         0.0 MB |
| Electronic energy minimisation requirements         236.0 MB         0.0 MB |
| Geometry minimisation requirements                  309.4 MB         0.0 MB |
|                                               ----------------------------- |
| Approx. total storage required per process         1296.0 MB         0.0 MB |
|                                                                             |
| Requirements will fluctuate during execution and may exceed these estimates |
+-----------------------------------------------------------------------------+
 
 
 ************************************** Forces **************************************
 *                                                                                  *
 *                           Cartesian components (eV/A)                            *
 * -------------------------------------------------------------------------------- *
 *                         x                    y                    z              *
 *                                                                                  *
 * Al              1     -0.11878             -0.00515             -0.02581         *
 * Al              2      0.04717             -0.02463             -0.00510         *
 * Al              3     -0.10576             -0.02136              0.00923         *
 * Al              4      0.08416             -0.01084              0.00563         *
 * Al              5     -0.08409              0.00028             -0.13487         *
 * Al              6      0.11972              0.02545              0.00452         *
 * Al              7     -0.16044              0.03693             -0.02723         *
 * Al              8      0.07002              0.01735             -0.02660         *
 * Al              9     -0.08841              0.04937             -0.02112         *
 * Al             10      0.06417              0.01148             -0.02582         *
 * Al             11     -0.05648             -0.13381             -0.01526         *
 * Al             12      0.10614              0.00239             -0.01320         *
 * Al             13      0.34851              0.07435             -0.01226         *
 * Al             14      0.05116             -0.04091             -0.03370         *
 * Al             15     -0.02858              0.00863             -0.11387         *
 * Al             16      0.08186              0.03027             -0.02474         *
 * Al             17     -0.20363              0.05609              0.01274         *
 * Al             18      0.05221              0.01539             -0.00661         *
 * Al             19     -0.16296             -0.08169             -0.01292         *
 * Al             20      0.08834              0.00814             -0.01567         *
 * Al             21     -0.02822              0.02741              0.12849         *
 * Al             22      0.11420             -0.00553              0.00017         *
 * Al             23      0.01106              0.00716              0.11854         *
 * Al             24      0.02655              0.00007             -0.01360         *
 * Al             25     -0.12375             -0.05774              0.01456         *
 * Al             26      0.00656             -0.02412              0.01188         *
 * Al             27     -0.12046             -0.00894              0.02592         *
 * Al             28      0.07271              0.02568              0.00614         *
 * Al             29     -0.15219              0.05029              0.00932         *
 * Al             30      0.05684              0.00446              0.01591         *
 * Al             31     -0.18784              0.02275              0.01289         *
 * Al             32      0.09122             -0.02650              0.03089         *
 * Al             33      0.13677              0.10195              0.12349         *
 * Al             34      0.30886              0.16271              0.29234         *
 * Al             35     -0.03611             -0.00809             -0.07557         *
 * Al             36      0.16435              0.04938              0.21394         *
 * Al             37     -0.05072             -0.29117             -0.04812         *
 * Al             38      0.04902              0.06920              0.19246         *
 * Al             39     -0.56842             -0.28588              0.53426         *
 * Al             40      0.14971             -0.17424             -0.03502         *
 * Al             41     -0.76197             -0.03297              0.59931         *
 * Al             42      0.21475              0.29844             -0.07030         *
 * Al             43     -0.07424             -0.17710             -0.06016         *
 * Al             44      0.20839             -0.15943             -0.22099         *
 * Al             45     -0.04103              0.00591              0.15223         *
 * Al             46     -0.04880              0.09250             -0.12929         *
 * Al             47     -0.63156             -0.08561              0.03483         *
 * Al             48     -0.24044             -0.06973             -0.02762         *
 * Al             49      0.01764              0.16355              0.13404         *
 * Al             50     -0.29566              0.05128             -0.04529         *
 * Al             51     -0.52313             -0.08934             -0.67006         *
 * Al             52     -0.12645              0.06275              0.20063         *
 * Al             53     -0.60721             -0.02601             -0.64674         *
 * Al             54      0.09563             -0.06291             -0.16843         *
 * Al             55     -0.18055             -0.19878             -0.04070         *
 * Al             56      0.24070              0.00519             -0.06540         *
 * Al             57     -0.20261             -0.10878             -0.11735         *
 * Al             58     -0.08662              0.03196              0.13395         *
 * Al             59     -0.00610              0.09043             -0.27341         *
 * Al             60     -0.19207             -0.03286             -0.14526         *
 * Al             61      0.01012              0.04206              0.00915         *
 * Al             62     -0.15750             -0.01822              0.26394         *
 * Al             63     -0.03802              0.11255             -0.00520         *
 * Ni              1     -0.00357              0.05049             -0.04785         *
 * Ni              2      0.00690             -0.00514              0.01296         *
 * Ni              3      0.02549              0.01918              0.01741         *
 * Ni              4      0.09568             -0.01163             -0.00413         *
 * Ni              5      0.18436             -0.03332             -0.05065         *
 * Ni              6      0.16274              0.04407             -0.05400         *
 * Ni              7      0.11983              0.20433              0.30728         *
 * Ni              8      0.02736             -0.01340              0.01421         *
 * Ni              9      0.03833              0.00374             -0.02313         *
 * Ni             10     -0.01006              0.00272              0.02167         *
 * Ni             11      0.37572             -0.05838             -0.06713         *
 * Ni             12      0.22209              0.10000             -0.03318         *
 * Ni             13      0.10021             -0.15392              0.18199         *
 * Ni             14     -0.06009             -0.01239              0.00327         *
 * Ni             15     -0.09141             -0.02458              0.03403         *
 * Ni             16     -0.02374              0.00192             -0.01490         *
 * Ni             17      0.17753              0.11670              0.00905         *
 * Ni             18      0.14774             -0.00519             -0.15252         *
 * Ni             19     -0.00035             -0.00526              0.08444         *
 * Ni             20      0.05394              0.00909              0.00604         *
 * Ni             21     -0.00875             -0.00430             -0.00939         *
 * Ni             22      0.02613              0.00591             -0.02415         *
 * Ni             23      0.20624             -0.00661             -0.04625         *
 * Ni             24      0.06140             -0.13213             -0.13610         *
 * Ni             25      0.22702              0.04951             -0.20919         *
 * Ni             26      0.07622              0.05972              0.02575         *
 * Ni             27      0.07932              0.00035             -0.03208         *
 * Ni             28      0.03261              0.01635             -0.05935         *
 * Ni             29      0.11121              0.06266             -0.00372         *
 * Ni             30      0.26097             -0.06383             -0.11286         *
 * Ni             31      0.14213              0.21084             -0.26493         *
 * Ni             32      0.00327             -0.03208              0.03480         *
 * Ni             33     -0.05342              0.02502              0.00715         *
 * Ni             34     -0.03435             -0.06953             -0.02544         *
 * Ni             35      0.24044             -0.00600             -0.00917         *
 * Ni             36      0.31224              0.09455              0.05497         *
 * Ni             37      0.20936             -0.05102             -0.07058         *
 * Ni             38      0.02672             -0.02834             -0.00129         *
 * Ni             39     -0.07594              0.00019              0.02342         *
 * Ni             40     -0.01753             -0.04040             -0.02301         *
 * Ni             41      0.41154              0.00697             -0.02600         *
 * Ni             42      0.26943              0.06563             -0.05654         *
 * Ni             43      0.09000             -0.04592              0.02856         *
 * Ni             44      0.09361             -0.00693             -0.01059         *
 * Ni             45     -0.03316             -0.01157              0.02733         *
 * Ni             46      0.02177              0.06561             -0.01238         *
 * Ni             47     -0.07928              0.14818              0.10397         *
 * Ni             48     -0.01057             -0.11458             -0.09678         *
 * Ni             49      0.20705             -0.05570              0.12847         *
 * Ni             50      0.00329             -0.02505             -0.02837         *
 * Ni             51     -0.09282              0.01223             -0.00809         *
 * Ni             52      0.08395             -0.01337              0.01251         *
 * Ni             53     -0.08430             -0.22651             -0.08085         *
 * Ni             54     -0.14802             -0.05780             -0.21690         *
 * Ni             55      0.09583              0.00233             -0.15400         *
 * Ni             56      0.02028              0.02608             -0.04987         *
 * Ni             57      0.02088              0.02222              0.01343         *
 * Ni             58     -0.00524              0.02271             -0.02099         *
 * Ni             59     -0.03800              0.20616              0.00162         *
 * Ni             60      0.11846             -0.12969             -0.04927         *
 * Ni             61      0.09841              0.05415             -0.16155         *
 * Ni             62     -0.00671             -0.01034              0.00613         *
 * Ni             63     -0.11311              0.00061             -0.05091         *
 * Ni             64     -0.03764              0.01165              0.01670         *
 * Ni             65      0.02165             -0.11457              0.09692         *
 * Ni             66      0.14929              0.02833             -0.04050         *
 * Ni             67      0.08570              0.00054             -0.14447         *
 * Ni             68     -0.00620             -0.00448             -0.00410         *
 * Ni             69     -0.01868             -0.03943             -0.02123         *
 * Ni             70      0.00384             -0.03394              0.00453         *
 * Ni             71     -0.22615              0.04857             -0.49925         *
 * Ni             72     -0.07677             -0.03738              0.11386         *
 * Ni             73      0.10150             -0.00657              0.05787         *
 * Ni             74      0.02811             -0.00254             -0.00275         *
 * Ni             75      0.09800             -0.00861              0.02668         *
 * Ni             76     -0.00421             -0.02887              0.04149         *
 * Ni             77      0.09029             -0.06293             -0.12885         *
 * Ni             78     -0.12903              0.00920              0.18480         *
 * Ni             79      0.11136             -0.03706              0.12917         *
 * Ni             80      0.03519              0.03215              0.00782         *
 * Ni             81      0.00899              0.02406             -0.00286         *
 * Ni             82      0.00063             -0.00760             -0.00434         *
 * Ni             83      0.11101             -0.05062             -0.11872         *
 * Ni             84      0.00879             -0.03195             -0.14011         *
 * Ni             85      0.12040             -0.00888              0.04817         *
 * Ni             86     -0.00197             -0.00413             -0.01139         *
 * Ni             87     -0.01238             -0.01128             -0.00561         *
 * Ni             88     -0.05460              0.02731              0.02111         *
 * Ni             89      0.14165              0.11995             -0.15481         *
 * Ni             90     -0.23459             -0.34953             -0.13202         *
 * Ni             91      0.12773              0.05898             -0.00719         *
 * Ni             92      0.00639             -0.03125              0.01347         *
 * Ni             93     -0.00640             -0.00325             -0.03146         *
 * Ni             94      0.01372              0.01379              0.01970         *
 * Ni             95     -0.11111             -0.07173              0.09510         *
 * Ni             96     -0.34673              0.26501             -0.13271         *
 * Ni             97     -0.27201              0.33497              0.07313         *
 * Ni             98      0.01413             -0.17701              0.17347         *
 * Ni             99      0.01116              0.29243              0.14220         *
 * Ni            100      0.22777              0.05892              0.12166         *
 * Ni            101     -0.20646              0.02990             -0.06809         *
 * Ni            102      0.03276             -0.10383              0.18206         *
 * Ni            103      0.09087              0.02361              0.06145         *
 * Ni            104      0.08138             -0.25546              0.44978         *
 * Ni            105     -0.06935             -0.17839              0.04027         *
 * Ni            106      0.32222             -0.05949              0.05467         *
 * Ni            107     -0.18559             -0.16204              0.00313         *
 * Ni            108     -0.07132             -0.00213              0.00549         *
 * Ni            109      0.01389             -0.00126             -0.04066         *
 * Ni            110     -0.16610             -0.17245              0.15383         *
 * Ni            111     -0.22206             -0.05239             -0.06019         *
 * Ni            112      0.03590             -0.14384             -0.04361         *
 * Ni            113      0.26204              0.13636              0.07176         *
 * Ni            114      0.01518             -0.02139              0.00789         *
 * Ni            115     -0.05975              0.01309              0.13999         *
 * Ni            116      0.08879              0.23382              0.17939         *
 * Ni            117      0.07303              0.01932              0.12732         *
 * Ni            118      0.11362             -0.00455              0.13298         *
 * Ni            119      0.16192              0.09400              0.02910         *
 * Ni            120     -0.02838              0.06332             -0.25700         *
 * Ni            121     -0.11901             -0.06401              0.24344         *
 * Ni            122     -0.17073             -0.05765              0.13384         *
 * Ni            123     -0.08518              0.15114             -0.14855         *
 * Ni            124      0.09976             -0.00493             -0.02457         *
 * Ni            125      0.16065              0.29632             -0.10245         *
 * Ni            126     -0.27581             -0.24497              0.06115         *
 * Ni            127     -0.04988             -0.05091             -0.11537         *
 * Ni            128     -0.17833             -0.07995              0.00779         *
 * Ni            129     -0.03650              0.15779             -0.11032         *
 * Ni            130      0.04704             -0.06513              0.00655         *
 * Ni            131      0.03284              0.00564              0.09900         *
 * Ni            132      0.09252             -0.02383              0.04653         *
 * Ni            133      0.12188             -0.12583             -0.15517         *
 * Ni            134     -0.07783              0.11595              0.19428         *
 * Ni            135     -0.18493              0.05370              0.09036         *
 * Ni            136     -0.18998              0.06450             -0.13987         *
 * Ni            137     -0.34810             -0.39946             -0.02415         *
 * Ni            138      0.12025              0.09043             -0.02124         *
 * Ni            139     -0.12675             -0.03078             -0.08033         *
 * Ni            140      0.12588             -0.02026             -0.00390         *
 * Ni            141     -0.13659              0.08317              0.20105         *
 * Ni            142      0.17679              0.01907             -0.11419         *
 * Ni            143      0.33002              0.19860             -0.22953         *
 * Ni            144     -0.09635             -0.05217              0.01276         *
 * Ni            145      0.17343              0.04373             -0.11101         *
 * Ni            146     -0.35571             -0.22643              0.20699         *
 * Ni            147     -0.04774             -0.07321              0.05730         *
 * Ni            148      0.22220              0.10804             -0.03303         *
 * Ni            149      0.20309             -0.05989             -0.25213         *
 * Ni            150      0.02076             -0.07418              0.23498         *
 * Ni            151     -0.31610              0.06273              0.12900         *
 * Ni            152      0.03658             -0.14400             -0.04376         *
 * Ni            153     -0.06659              0.17075             -0.22170         *
 * Ni            154      0.19344              0.21414              0.02206         *
 * Ni            155     -0.01013             -0.12801              0.07341         *
 * Ni            156     -0.04923             -0.12807             -0.28883         *
 * Ni            157      0.25311              0.05422             -0.25487         *
 * Ni            158     -0.17888              0.11433              0.24255         *
 * Ni            159     -0.15462             -0.05282              0.11443         *
 * Ni            160     -0.25289              0.16139              0.21412         *
 * Ni            161     -0.02315              0.06407              0.10882         *
 * Ni            162     -0.00942             -0.12859              0.07968         *
 * Ni            163      0.00351              0.06024              0.25415         *
 * Ni            164      0.32961             -0.09763             -0.08498         *
 * Ni            165     -0.32865              0.04466              0.17415         *
 * Ni            166     -0.10760              0.12439             -0.01610         *
 * Ni            167     -0.05603             -0.15610              0.09710         *
 * Ni            168     -0.24650              0.15700              0.24776         *
 * Ni            169     -0.02826             -0.12505             -0.05725         *
 * Ni            170      0.06814              0.28804             -0.03225         *
 * Ni            171      0.25397              0.11857              0.32654         *
 * Ni            172      0.25925             -0.14552              0.00051         *
 * Ni            173     -0.26714              0.26706             -0.07364         *
 * Ni            174     -0.06061             -0.00014              0.01510         *
 * Ni            175      0.03394             -0.07013             -0.02357         *
 * Ni            176     -0.02051             -0.06129              0.21692         *
 * Ni            177      0.05950             -0.01453             -0.17760         *
 * Ni            178      0.07376              0.08880             -0.22490         *
 * Ni            179      0.28907             -0.07709              0.06083         *
 * Ni            180     -0.06871              0.02703             -0.11702         *
 * Ni            181     -0.09620             -0.01814              0.06558         *
 * Ni            182     -0.17418             -0.17199             -0.09973         *
 * Ni            183      0.03188              0.10059              0.35057         *
 * Ni            184     -0.15287              0.15942              0.00927         *
 * Ni            185      0.11518             -0.06149              0.01065         *
 * Ni            186     -0.00398             -0.09789             -0.14089         *
 * Ni            187     -0.06980             -0.10541             -0.19203         *
 * Ni            188      0.05199              0.18214             -0.07137         *
 * Ni            189     -0.08445              0.09688              0.27921         *
 * Ni            190      0.13535             -0.01303             -0.20510         *
 * Ni            191     -0.05777              0.04048             -0.11812         *
 * Ni            192      0.09178              0.00026             -0.13444         *
 *                                                                                  *
 ************************************************************************************
 LBFGS: finished iteration     0 with enthalpy= -2.71385139E+005 eV
  
 +-----------+-----------------+-----------------+------------+-----+ <-- LBFGS
 | Parameter |      value      |    tolerance    |    units   | OK? | <-- LBFGS
 +-----------+-----------------+-----------------+------------+-----+ <-- LBFGS
 |  dE/ion   |   0.000000E+000 |   2.000000E-005 |         eV | No  | <-- LBFGS
 |  |F|max   |   9.699765E-001 |   5.000000E-002 |       eV/A | No  | <-- LBFGS
 |  |dR|max  |   0.000000E+000 |   1.000000E-003 |          A | No  | <-- LBFGS
 +-----------+-----------------+-----------------+------------+-----+ <-- LBFGS
  

================================================================================
 Starting LBFGS iteration          1 ...
================================================================================
  
 +------------+-------------+-------------+-----------------+ <-- min LBFGS
 |    Step    |   lambda    |   F.delta'  |    enthalpy     | <-- min LBFGS
 +------------+-------------+-------------+-----------------+ <-- min LBFGS
 |  previous  |    0.000000 |    2.080317 |  -271385.139168 | <-- min LBFGS
 +------------+-------------+-------------+-----------------+ <-- min LBFGS
  

--------------------------------------------------------------------------------
 LBFGS: starting iteration         1 with trial guess (lambda=  1.000000)
--------------------------------------------------------------------------------
 
                           -------------------------------
                                     Cell Contents
                           -------------------------------
 
            xxxxxxxxxxxxxxxxxxxxxxxxxxxxxxxxxxxxxxxxxxxxxxxxxxxxxxxxxxxxxxxxx
            x  Element         Atom        Fractional coordinates of atoms  x
            x                 Number           u          v          w      x
            x---------------------------------------------------------------x
            x  Al                1         0.570686   0.307414   0.813998   x
            x  Al                2         0.818254   0.309207   0.812751   x
            x  Al                3         0.569881   0.559263   0.815376   x
            x  Al                4         0.817606   0.558238   0.813192   x
            x  Al                5         0.575313   0.809638   0.809859   x
            x  Al                6         0.819117   0.807804   0.812322   x
            x  Al                7         0.572232   0.058456   0.812999   x
            x  Al                8         0.819978   0.059152   0.811970   x
            x  Al                9         0.569602   0.305963   0.062222   x
            x  Al               10         0.817821   0.308661   0.063471   x
            x  Al               11         0.573351   0.554854   0.061431   x
            x  Al               12         0.816710   0.558098   0.063511   x
            x  Al               13         0.577391   0.814392   0.062678   x
            x  Al               14         0.819200   0.808322   0.063086   x
            x  Al               15         0.574359   0.057125   0.058894   x
            x  Al               16         0.819979   0.058977   0.062895   x
            x  Al               17         0.570251   0.306338   0.311669   x
            x  Al               18         0.817086   0.309544   0.312891   x
            x  Al               19         0.567326   0.559709   0.311045   x
            x  Al               20         0.816104   0.558300   0.312628   x
            x  Al               21         0.574655   0.809412   0.315793   x
            x  Al               22         0.818591   0.807351   0.313560   x
            x  Al               23         0.577144   0.057430   0.318831   x
            x  Al               24         0.819630   0.058863   0.313709   x
            x  Al               25         0.571621   0.308631   0.563526   x
            x  Al               26         0.817120   0.310219   0.562756   x
            x  Al               27         0.568923   0.558949   0.564413   x
            x  Al               28         0.816573   0.557898   0.562587   x
            x  Al               29         0.570690   0.808511   0.564018   x
            x  Al               30         0.819236   0.807167   0.563079   x
            x  Al               31         0.572531   0.057952   0.562644   x
            x  Al               32         0.820049   0.059089   0.563516   x
            x  Al               33         0.328687   0.182494   0.683961   x
            x  Al               34         0.056346   0.057848   0.557624   x
            x  Al               35         0.192980   0.190298   0.554619   x
            x  Al               36         0.321501   0.935467   0.689241   x
            x  Al               37         0.192684   0.929508   0.554586   x
            x  Al               38         0.318592   0.689974   0.693835   x
            x  Al               39         0.074685   0.687536   0.679208   x
            x  Al               40         0.198692   0.188652   0.322247   x
            x  Al               41         0.067227   0.805445   0.315546   x
            x  Al               42         0.326139   0.685022   0.438495   x
            x  Al               43         0.194373   0.667434   0.313199   x
            x  Al               44         0.337249   0.428715   0.430302   x
            x  Al               45         0.328534   0.555027   0.569549   x
            x  Al               46         0.192224   0.432854   0.306407   x
            x  Al               47         0.063752   0.435380   0.438073   x
            x  Al               48         0.317497   0.060376   0.061864   x
            x  Al               49         0.440409   0.057084   0.194622   x
            x  Al               50         0.185828   0.054901   0.935108   x
            x  Al               51         0.068470   0.185170   0.191288   x
            x  Al               52         0.433461   0.814687   0.189359   x
            x  Al               53         0.070870   0.945102   0.191837   x
            x  Al               54         0.201488   0.808496   0.181693   x
            x  Al               55         0.432132   0.677764   0.059849   x
            x  Al               56         0.334575   0.430844   0.188798   x
            x  Al               57         0.188487   0.425164   0.063035   x
            x  Al               58         0.187097   0.186355   0.807251   x
            x  Al               59         0.434364   0.816952   0.935010   x
            x  Al               60         0.191700   0.811557   0.937410   x
            x  Al               61         0.191591   0.426163   0.805286   x
            x  Al               62         0.193515   0.427298   0.570987   x
            x  Al               63         0.188910   0.565182   0.934069   x
            x  Ni                1         0.568087   0.431585   0.937409   x
            x  Ni                2         0.694192   0.307834   0.938158   x
            x  Ni                3         0.693657   0.433459   0.813680   x
            x  Ni                4         0.817457   0.433623   0.938627   x
            x  Ni                5         0.942309   0.309350   0.938026   x
            x  Ni                6         0.942050   0.434089   0.812833   x
            x  Ni                7         0.564563   0.687905   0.941132   x
            x  Ni                8         0.693043   0.558930   0.938125   x
            x  Ni                9         0.693553   0.683087   0.813967   x
            x  Ni               10         0.818577   0.683033   0.938122   x
            x  Ni               11         0.941988   0.558337   0.938220   x
            x  Ni               12         0.942549   0.682775   0.812719   x
            x  Ni               13         0.569292   0.932598   0.935601   x
            x  Ni               14         0.695880   0.808933   0.936999   x
            x  Ni               15         0.696467   0.934211   0.811715   x
            x  Ni               16         0.820191   0.933583   0.937126   x
            x  Ni               17         0.942754   0.807903   0.937684   x
            x  Ni               18         0.943315   0.933131   0.812260   x
            x  Ni               19         0.569016   0.182494   0.937290   x
            x  Ni               20         0.696302   0.058336   0.936464   x
            x  Ni               21         0.694847   0.183637   0.812463   x
            x  Ni               22         0.819215   0.183995   0.937598   x
            x  Ni               23         0.943232   0.058866   0.937514   x
            x  Ni               24         0.943047   0.184537   0.812488   x
            x  Ni               25         0.562044   0.432043   0.190789   x
            x  Ni               26         0.691790   0.307459   0.187571   x
            x  Ni               27         0.692027   0.431826   0.064121   x
            x  Ni               28         0.816731   0.433652   0.188254   x
            x  Ni               29         0.942229   0.309364   0.188367   x
            x  Ni               30         0.941795   0.433959   0.063348   x
            x  Ni               31         0.563846   0.688647   0.183056   x
            x  Ni               32         0.690690   0.558872   0.187674   x
            x  Ni               33         0.693688   0.683940   0.062810   x
            x  Ni               34         0.817655   0.682944   0.188170   x
            x  Ni               35         0.941832   0.558439   0.188237   x
            x  Ni               36         0.942281   0.682967   0.063243   x
            x  Ni               37         0.568176   0.934981   0.189933   x
            x  Ni               38         0.694886   0.809438   0.188649   x
            x  Ni               39         0.697445   0.934908   0.062687   x
            x  Ni               40         0.820067   0.933475   0.188596   x
            x  Ni               41         0.942699   0.807813   0.188404   x
            x  Ni               42         0.943027   0.933276   0.062972   x
            x  Ni               43         0.568979   0.177778   0.187814   x
            x  Ni               44         0.695446   0.057657   0.188493   x
            x  Ni               45         0.694964   0.182753   0.062708   x
            x  Ni               46         0.818730   0.183915   0.188193   x
            x  Ni               47         0.943242   0.058835   0.188480   x
            x  Ni               48         0.942750   0.184209   0.063074   x
            x  Ni               49         0.563659   0.433791   0.432831   x
            x  Ni               50         0.692610   0.309592   0.437729   x
            x  Ni               51         0.690933   0.433686   0.311875   x
            x  Ni               52         0.816579   0.434356   0.437468   x
            x  Ni               53         0.942351   0.309895   0.437883   x
            x  Ni               54         0.941909   0.434230   0.313013   x
            x  Ni               55         0.567446   0.684532   0.439105   x
            x  Ni               56         0.690525   0.558331   0.437351   x
            x  Ni               57         0.691784   0.682962   0.312034   x
            x  Ni               58         0.817362   0.682055   0.437731   x
            x  Ni               59         0.942031   0.558392   0.437730   x
            x  Ni               60         0.942267   0.682697   0.313165   x
            x  Ni               61         0.570527   0.932738   0.440226   x
            x  Ni               62         0.695260   0.807632   0.439485   x
            x  Ni               63         0.696971   0.933159   0.314366   x
            x  Ni               64         0.820089   0.932786   0.438922   x
            x  Ni               65         0.942850   0.807325   0.438138   x
            x  Ni               66         0.943135   0.933044   0.313572   x
            x  Ni               67         0.571308   0.182276   0.439166   x
            x  Ni               68         0.697557   0.058309   0.440094   x
            x  Ni               69         0.695487   0.183728   0.313332   x
            x  Ni               70         0.818902   0.185012   0.438514   x
            x  Ni               71         0.943148   0.058938   0.438223   x
            x  Ni               72         0.942567   0.184491   0.313348   x
            x  Ni               73         0.568024   0.433795   0.690695   x
            x  Ni               74         0.693266   0.308979   0.688388   x
            x  Ni               75         0.690451   0.434404   0.562158   x
            x  Ni               76         0.817124   0.434068   0.687518   x
            x  Ni               77         0.942571   0.309798   0.687435   x
            x  Ni               78         0.942117   0.434289   0.562582   x
            x  Ni               79         0.568211   0.684293   0.688878   x
            x  Ni               80         0.692469   0.558440   0.688825   x
            x  Ni               81         0.693193   0.682541   0.563295   x
            x  Ni               82         0.818073   0.682289   0.687960   x
            x  Ni               83         0.942237   0.558265   0.687642   x
            x  Ni               84         0.942407   0.682371   0.562720   x
            x  Ni               85         0.569620   0.934272   0.687085   x
            x  Ni               86         0.695700   0.808117   0.687123   x
            x  Ni               87         0.696004   0.933043   0.563645   x
            x  Ni               88         0.819990   0.933427   0.687445   x
            x  Ni               89         0.942922   0.807543   0.687604   x
            x  Ni               90         0.943615   0.932959   0.562929   x
            x  Ni               91         0.568759   0.182429   0.688036   x
[...]
            Ni 47  -- Ni 48                 -0.00        -0.00          2.58835
            Ni 14  -- Ni 39                  0.02        -0.00          2.58838
            Ni 25  -- Ni 32                  0.03         0.00          2.58841
             Al 22 -- Ni 62                  0.20        -0.00          2.58843
             Al 5  -- Ni 108                 0.16         0.00          2.58859
             Al 11 -- Ni 7                   0.20        -0.00          2.58878
            Ni 105 -- Ni 131                 0.02        -0.00          2.58882
            Ni 114 -- Ni 140                 0.05        -0.00          2.58902
             Al 40 -- Ni 124                 0.20         0.00          2.58903
             Al 40 -- Ni 145                 0.17         0.00          2.58904
             Al 15 -- Ni 44                  0.20        -0.00          2.58909
            Ni 110 -- Ni 136                 0.06        -0.00          2.58983
            Ni 36  -- Ni 129                 0.11         0.00          2.58984
            Ni 142 -- Ni 143                 0.05        -0.00          2.59003
            Ni 28  -- Ni 51                  0.04         0.00          2.59008
            Ni 12  -- Ni 89                  0.03        -0.00          2.59091
            Ni 130 -- Ni 131                 0.12         0.00          2.59093
             Al 14 -- Ni 16                  0.19         0.00          2.59107
             Al 48 -- Ni 141                 0.18         0.00          2.59119
            Ni 104 -- Ni 177                 0.05        -0.00          2.59128
             Al 60 -- Ni 112                 0.17        -0.00          2.59138
            Ni 71  -- Ni 96                  0.01         0.00          2.59145
            Ni 110 -- Ni 112                 0.05        -0.00          2.59154
            Ni 133 -- Ni 135                 0.03         0.00          2.59184
             Al 61 -- Ni 97                  0.18         0.00          2.59213
            Ni 67  -- Ni 165                 0.02         0.00          2.59234
            Ni 37  -- Ni 38                  0.07         0.00          2.59235
            Ni 90  -- Ni 95                  0.01        -0.00          2.59250
            Ni 128 -- Ni 144                 0.14         0.00          2.59271
             Al 40 -- Ni 163                 0.16        -0.00          2.59316
            Ni 183 -- Ni 185                 0.07        -0.00          2.59340
            Ni 169 -- Ni 171                -0.00        -0.00          2.59354
            Ni 101 -- Ni 144                 0.09        -0.00          2.59357
            Ni 174 -- Ni 182                 0.00         0.00          2.59358
            Ni 13  -- Ni 120                 0.04         0.00          2.59365
            Ni 34  -- Ni 41                  0.06        -0.00          2.59405
             Al 27 -- Ni 49                  0.18        -0.00          2.59460
             Al 49 -- Ni 139                 0.18         0.00          2.59509
            Ni 116 -- Ni 118                 0.02        -0.00          2.59594
             Al 12 -- Ni 32                  0.20        -0.00          2.59595
             Al 16 -- Ni 40                  0.19        -0.00          2.59618
            Ni 26  -- Ni 43                  0.06         0.00          2.59626
            Ni 170 -- Ni 175                -0.01         0.00          2.59632
             Al 51 -- Ni 124                 0.19        -0.00          2.59643
             Al 43 -- Ni 150                 0.18         0.00          2.59658
            Ni 145 -- Ni 170                -0.00         0.00          2.59663
            Ni 129 -- Ni 132                 0.11        -0.00          2.59668
             Al 34 -- Ni 162                 0.16        -0.00          2.59697
            Ni 1   -- Ni 8                   0.03        -0.00          2.59709
             Al 63 -- Ni 97                  0.17         0.00          2.59710
            Ni 59  -- Ni 78                 -0.00         0.00          2.59720
            Ni 155 -- Ni 156                 0.06         0.00          2.59720
            Ni 60  -- Ni 65                  0.01         0.00          2.59732
            Ni 151 -- Ni 174                -0.04         0.00          2.59778
            Ni 13  -- Ni 139                -0.01         0.00          2.59811
             Al 15 -- Ni 37                  0.19        -0.00          2.59811
             Al 44 -- Ni 170                 0.16         0.00          2.59813
             Al 17 -- Ni 69                  0.18        -0.00          2.59822
            Ni 138 -- Ni 139                -0.01         0.00          2.59824
            Ni 41  -- Ni 66                 -0.03         0.00          2.59835
             Al 41 -- Ni 129                 0.20         0.00          2.59838
            Ni 51  -- Ni 52                  0.03         0.00          2.59839
            Ni 151 -- Ni 152                 0.04         0.00          2.59865
            Ni 35  -- Ni 129                 0.10         0.00          2.59904
            Ni 111 -- Ni 186                 0.08         0.00          2.59920
            Ni 13  -- Ni 20                  0.06         0.00          2.59958
             Al 56 -- Ni 128                 0.14         0.00          2.59974
             Al 56 -- Ni 135                 0.15         0.00          2.60030
            Ni 49  -- Ni 75                  0.01         0.00          2.60042
             Al 38 -- Ni 188                 0.17        -0.00          2.60075
            Ni 53  -- Ni 54                  0.00         0.00          2.60101
             Al 60 -- Ni 113                 0.19        -0.00          2.60170
            Ni 41  -- Ni 42                  0.03        -0.00          2.60171
             Al 3  -- Ni 180                 0.17        -0.00          2.60172
            Ni 133 -- Ni 160                -0.02         0.00          2.60204
             Al 58 -- Ni 117                 0.15        -0.00          2.60207
             Al 50 -- Ni 142                 0.15        -0.00          2.60227
            Ni 112 -- Ni 122                 0.11         0.00          2.60257
            Ni 155 -- Ni 157                 0.07        -0.00          2.60265
            Ni 123 -- Ni 124                 0.02        -0.00          2.60282
            Ni 68  -- Ni 69                  0.03         0.00          2.60304
            Ni 99  -- Ni 169                 0.01        -0.00          2.60347
            Ni 117 -- Ni 122                 0.03        -0.00          2.60348
            Ni 150 -- Ni 178                 0.08         0.00          2.60370
            Ni 13  -- Ni 39                  0.01         0.00          2.60394
            Ni 47  -- Ni 163                 0.06        -0.00          2.60454
            Ni 54  -- Ni 59                  0.00         0.00          2.60475
            Ni 111 -- Ni 115                 0.04        -0.00          2.60499
             Al 22 -- Ni 57                  0.19        -0.00          2.60504
            Ni 138 -- Ni 159                 0.02         0.00          2.60505
            Ni 25  -- Ni 27                  0.00         0.00          2.60575
            Ni 161 -- Ni 162                -0.01         0.00          2.60606
            Ni 95  -- Ni 96                  0.01        -0.00          2.60617
            Ni 143 -- Ni 167                 0.01         0.00          2.60682
            Ni 55  -- Ni 181                 0.06         0.00          2.60696
            Ni 152 -- Ni 158                 0.03         0.00          2.60736
             Al 55 -- Ni 31                  0.17        -0.00          2.60879
            Ni 53  -- Ni 78                  0.00         0.00          2.60882
            Ni 113 -- Ni 139                 0.01         0.00          2.60886
             Al 9  -- Ni 43                  0.19        -0.00          2.60907
            Ni 178 -- Ni 185                 0.08        -0.00          2.60950
             Al 21 -- Ni 159                 0.16         0.00          2.60959
            Ni 147 -- Ni 170                -0.02         0.00          2.60963
             Al 38 -- Ni 177                 0.17         0.00          2.60988
             Al 9  -- Ni 144                 0.19         0.00          2.60994
            Ni 129 -- Ni 130                 0.08        -0.00          2.61007
            Ni 169 -- Ni 172                 0.01        -0.00          2.61029
            Ni 130 -- Ni 153                -0.01         0.00          2.61034
            Ni 173 -- Ni 192                -0.01         0.00          2.61039
             Al 34 -- Ni 122                 0.16         0.00          2.61093
             Al 51 -- Ni 163                 0.16        -0.00          2.61156
            Ni 146 -- Ni 174                 0.01         0.00          2.61174
            Ni 71  -- Ni 90                  0.02         0.00          2.61189
             Al 11 -- Ni 107                 0.16         0.00          2.61253
            Ni 121 -- Ni 173                 0.01         0.00          2.61266
             Al 38 -- Ni 178                 0.17        -0.00          2.61295
            Ni 172 -- Ni 177                -0.02        -0.00          2.61298
            Ni 117 -- Ni 191                 0.08         0.00          2.61332
             Al 58 -- Ni 122                 0.18        -0.00          2.61358
             Al 17 -- Ni 43                  0.17        -0.00          2.61366
            Ni 178 -- Ni 184                 0.03         0.00          2.61413
            Ni 156 -- Ni 167                 0.11        -0.00          2.61426
            Ni 115 -- Ni 117                 0.09         0.00          2.61511
            Ni 168 -- Ni 177                 0.03        -0.00          2.61547
             Al 61 -- Ni 104                 0.15         0.00          2.61550
             Al 53 -- Ni 137                 0.18         0.00          2.61664
            Ni 127 -- Ni 134                 0.02         0.00          2.61691
             Al 46 -- Ni 153                 0.15        -0.00          2.61702
             Al 48 -- Ni 120                 0.18        -0.00          2.61717
            Ni 138 -- Ni 160                 0.05         0.00          2.61744
            Ni 65  -- Ni 66                  0.02         0.00          2.61764
            Ni 158 -- Ni 181                -0.01         0.00          2.61826
             Al 21 -- Ni 31                  0.19         0.00          2.61865
            Ni 178 -- Ni 179                 0.06        -0.00          2.61919
            Ni 152 -- Ni 160                 0.02         0.00          2.61944
             Al 40 -- Ni 143                 0.18         0.00          2.61949
            Ni 130 -- Ni 149                -0.02         0.00          2.62010
             Al 35 -- Ni 122                 0.17         0.00          2.62065
             Al 36 -- Ni 122                 0.17         0.00          2.62158
            Ni 140 -- Ni 141                 0.07        -0.00          2.62220
            Ni 37  -- Ni 39                  0.01         0.00          2.62222
            Ni 42  -- Ni 47                 -0.01        -0.00          2.62223
             Al 36 -- Ni 184                 0.17         0.00          2.62244
             Al 58 -- Ni 119                 0.16        -0.00          2.62272
            Ni 110 -- Ni 118                 0.04        -0.00          2.62273
            Ni 102 -- Ni 109                -0.00        -0.00          2.62366
             Al 5  -- Ni 7                   0.19         0.00          2.62379
            Ni 136 -- Ni 141                 0.01        -0.00          2.62487
            Ni 159 -- Ni 160                 0.09         0.00          2.62542
            Ni 65  -- Ni 148                 0.04         0.00          2.62631
             Al 43 -- Ni 155                 0.18         0.00          2.62846
             Al 50 -- Ni 117                 0.14        -0.00          2.62868
             Al 47 -- Ni 150                 0.18        -0.00          2.62899
            Ni 102 -- Ni 108                 0.09        -0.00          2.62944
            Ni 156 -- Ni 157                 0.12         0.00          2.62983
            Ni 158 -- Ni 160                 0.11         0.00          2.63115
            Ni 124 -- Ni 125                 0.03        -0.00          2.63121
             Al 5  -- Ni 115                 0.15         0.00          2.63147
             Al 44 -- Ni 175                 0.16         0.00          2.63155
            Ni 170 -- Ni 171                -0.02         0.00          2.63173
             Al 23 -- Ni 166                 0.14         0.00          2.63269
            Ni 134 -- Ni 135                 0.09        -0.00          2.63312
            Ni 162 -- Ni 164                 0.01         0.00          2.63432
             Al 52 -- Ni 37                  0.15         0.00          2.63438
            Ni 154 -- Ni 155                 0.06         0.00          2.63439
            Ni 114 -- Ni 138                 0.00         0.00          2.63464
            Ni 108 -- Ni 111                 0.02        -0.00          2.63510
             Al 38 -- Ni 182                 0.16         0.00          2.63529
             Al 63 -- Ni 100                 0.16        -0.00          2.63654
             Al 39 -- Ni 178                 0.18        -0.00          2.63848
             Al 52 -- Ni 31                  0.16         0.00          2.63886
            Ni 155 -- Ni 188                 0.03         0.00          2.63974
            Ni 150 -- Ni 153                -0.01         0.00          2.63977
             Al 37 -- Ni 190                 0.15        -0.00          2.63981
             Al 11 -- Ni 31                  0.17        -0.00          2.64017
            Ni 7   -- Ni 107                 0.01        -0.00          2.64047
            Ni 31  -- Ni 32                  0.05         0.00          2.64099
             Al 23 -- Ni 159                 0.14         0.00          2.64170
            Ni 156 -- Ni 162                 0.13         0.00          2.64207
            Ni 126 -- Ni 127                -0.00         0.00          2.64211
            Ni 31  -- Ni 57                  0.07         0.00          2.64335
             Al 44 -- Ni 150                 0.14        -0.00          2.64396
            Ni 114 -- Ni 133                -0.03         0.00          2.64459
             Al 3  -- Ni 7                   0.18        -0.00          2.64507
             Al 48 -- Al 50                  0.25        -0.00          2.64514
             Al 59 -- Ni 7                   0.15         0.00          2.64560
             Al 46 -- Ni 147                 0.13        -0.00          2.64723
            Ni 106 -- Ni 135                 0.03        -0.00          2.64827
             Al 13 -- Ni 139                 0.16         0.00          2.64844
             Al 48 -- Al 49                  0.26         0.00          2.65063
             Al 50 -- Al 58                  0.24        -0.00          2.65070
             Al 37 -- Ni 122                 0.16         0.00          2.65240
             Al 35 -- Ni 189                 0.15         0.00          2.65343
             Al 33 -- Ni 122                 0.15         0.00          2.65541
             Al 50 -- Ni 119                 0.13        -0.00          2.65834
            Ni 7   -- Ni 8                   0.05        -0.00          2.65961
             Al 35 -- Ni 190                 0.13        -0.00          2.66054
            Ni 7   -- Ni 9                   0.06        -0.00          2.66331
             Al 43 -- Ni 160                 0.15        -0.00          2.66595
             Al 42 -- Al 43                  0.25         0.00          2.66850
             Al 42 -- Ni 153                 0.16         0.00          2.67126
             Al 23 -- Al 49                  0.24         0.00          2.67216
             Al 38 -- Al 45                  0.23         0.00          2.68091
            Ni 168 -- Ni 169                 0.02        -0.00          2.68932
            Ni 148 -- Ni 150                 0.07        -0.00          2.69032
             Al 45 -- Al 62                  0.21        -0.00          2.69558
             Al 46 -- Al 56                  0.26         0.00          2.69584
            Ni 161 -- Ni 170                 0.02        -0.00          2.70715
             Al 5  -- Al 59                  0.20         0.00          2.71317
             Al 56 -- Ni 130                 0.10        -0.00          2.71589
             Al 19 -- Ni 31                  0.13        -0.00          2.71660
             Al 42 -- Al 45                  0.21         0.00          2.72031
             Al 11 -- Al 55                  0.20         0.00          2.72241
            Ni 164 -- Ni 170                 0.04         0.00          2.72319
             Al 36 -- Al 37                  0.22         0.00          2.72345
            Ni 149 -- Ni 150                 0.00         0.00          2.72495
             Al 56 -- Ni 124                 0.10         0.00          2.73368
             Al 55 -- Al 59                  0.20        -0.00          2.73481
             Al 46 -- Al 47                  0.21         0.00          2.73525
             Al 34 -- Al 35                  0.19        -0.00          2.73733
             Al 33 -- Al 35                  0.21         0.00          2.73823
             Al 33 -- Al 58                  0.20        -0.00          2.74124
             Al 21 -- Al 52                  0.20         0.00          2.74449
             Al 34 -- Al 37                  0.19         0.00          2.74489
             Al 57 -- Al 63                  0.19        -0.00          2.74944
             Al 61 -- Al 63                  0.20        -0.00          2.74997
             Al 52 -- Al 55                  0.20         0.00          2.76053
             Al 47 -- Al 62                  0.18        -0.00          2.76650
             Al 15 -- Al 49                  0.19         0.00          2.77146
             Al 44 -- Al 46                  0.20         0.00          2.77387
             Al 40 -- Al 51                  0.20        -0.00          2.77812
             Al 53 -- Al 54                  0.18        -0.00          2.78021
             Al 42 -- Ni 150                 0.11         0.00          2.78367
             Al 41 -- Al 43                  0.16         0.00          2.78595
             Al 44 -- Al 45                  0.15         0.00          2.78604
             Al 41 -- Al 53                  0.17         0.00          2.80201
             Al 43 -- Al 54                  0.16         0.00          2.80624
             Al 13 -- Al 59                  0.17        -0.00          2.83019
             Al 13 -- Al 52                  0.17         0.00          2.83104
             Al 56 -- Al 57                  0.15        -0.00          2.84018
             Al 41 -- Al 54                  0.12         0.00          2.86745
             Al 13 -- Al 55                  0.08         0.00          2.95521
================================================================================
 

Writing analysis data to castep.castep_bin

Writing model to castep.check
 
 A BibTeX formatted list of references used in this run has been written to 
 castep.bib
 
Initialisation time =     13.80 s
Calculation time    =  16698.01 s
Finalisation time   =     14.46 s
Total time          =  16726.27 s
Peak Memory Use     = 2363620 kB
  
Overall parallel efficiency rating: Good (71%)                                  
  
Data was distributed by:-
G-vector (48-way); efficiency rating: Good (72%)                                
