 +-------------------------------------------------+
 |                                                 |
 |      CCC   AA    SSS  TTTTT  EEEEE  PPPP        |
 |     C     A  A  S       T    E      P   P       |
 |     C     AAAA   SS     T    EEE    PPPP        |
 |     C     A  A     S    T    E      P           |
 |      CCC  A  A  SSS     T    EEEEE  P           |
 |                                                 |
 +-------------------------------------------------+
 |                                                 |
 | Welcome to Academic Release CASTEP version 20.11|          
 | Ab Initio Total Energy Program                  |
 |                                                 |
 | Authors:                                        |
 | M. Segall, M. Probert, C. Pickard, P. Hasnip,   |
 | S. Clark, K. Refson, J. R. Yates, M. Payne      |
 |                                                 |
 | Contributors:                                   |
 | P. Lindan, P. Haynes, J. White, V. Milman,      |
 | N. Govind, M. Gibson, P. Tulip, V. Cocula,      |
 | B. Montanari, D. Quigley, M. Glover,            |
 | L. Bernasconi, A. Perlov, M. Plummer,           |
 | E. McNellis, J. Meyer, J. Gale, D. Jochym       |
 | J. Aarons, B. Walker, R. Gillen, D. Jones       |
 | T. Green, I. J. Bush, C. J. Armstrong,          |
 | E. J. Higgins, E. L. Brown, M. S. McFly,        |
 | J. Wilkins, B-C. Shih, P. J. P. Byrne,          |
 | R. J. Maurer, J. C. Womack, J. Dziedzic,        |
 | J. R. Kermode, A. Bartok-Partay                 |
 |                                                 |
 | Copyright (c) 2000 - 2020                       |
 |                                                 |
 |     Distributed under license from Cambridge    |
 |     Enterprise for academic use only.           |
 |                                                 |
 | Please cite                                     |
 |                                                 |
 |     "First principles methods using CASTEP"     |
 |                                                 |
 |         Zeitschrift fuer Kristallographie       |
 |           220(5-6) pp. 567-570 (2005)           |
 |                                                 |
 | S. J. Clark, M. D. Segall, C. J. Pickard,       |
 | P. J. Hasnip, M. J. Probert, K. Refson,         |
 | M. C. Payne                                     |
 |                                                 |
 |       in all publications arising from          |
 |              your use of CASTEP                 |
 |                                                 |
 +-------------------------------------------------+
 |                                                 |
 |              http://www.castep.org              |
 |                                                 |
 +-------------------------------------------------+
 
 
 
 Compiled for linux_x86_64_ifort on Wed, 25 Aug 2021 18:50:38 +0100
 from code version e772bf432+  HEAD  Sat Apr 3 17:41:32 2021 +0100
 Compiler: Intel Fortran 19.0.5.281; Optimisation: fast
 MATHLIBS: Intel MKL(2019.0.5) (LAPACK version 3.7.0)
 FFT Lib : mkl
 Fundamental constants values: CODATA 2014
 
 Run started: Wed, 08 Mar 2023 14:33:48 +0000
 
 Atomic calculation performed for Al: 1s2 2s2 2p6 3s2 3p1
 
 Converged in 52 iterations to an ae energy of -6606.982 eV
 
   ============================================================                
   | Pseudopotential Report - Date of generation  8-03-2023   |                
   ------------------------------------------------------------                
   | Element: Al Ionic charge:  3.00 Level of theory: RPBE    |                
   | Atomic Solver: Koelling-Harmon                           |                
   |                                                          |                
   |               Reference Electronic Structure             |                
   |         Orbital         Occupation         Energy        |                
   |            3s              2.000           -0.284        |                
   |            3p              1.000           -0.100        |                
   |                                                          |                
   |                 Pseudopotential Definition               |                
   |        Beta     l      e      Rc     scheme   norm       |                
   |          1      0   -0.284   2.192     qc      0         |                
   |          2      0    0.250   2.192     qc      0         |                
   |          3      1   -0.100   2.192     qc      0         |                
   |          4      1    0.250   2.192     qc      0         |                
   |          5      2    0.000   2.000     qc      0         |                
   |          6      2    0.250   2.000     qc      0         |                
   |         loc     3    0.000   2.192     pn      0         |                
   |                                                          |                
   | Augmentation charge Rinner = 1.398                       |                
   | Partial core correction Rc = 1.398                       |                
   ------------------------------------------------------------                
   | "3|2.2|2.2|1.4|4|5|5|30:31:32U2U2"                       |                
   ------------------------------------------------------------                
   |      Author: Chris J. Pickard, Cambridge University      |                
   ============================================================                
 
 Atomic calculation performed for Ni: 1s2 2s2 2p6 3s2 3p6 3d8 4s2
 
 Converged in 109 iterations to an ae energy of -41381.414 eV
 
   ============================================================                
   | Pseudopotential Report - Date of generation  8-03-2023   |                
   ------------------------------------------------------------                
   | Element: Ni Ionic charge: 10.00 Level of theory: RPBE    |                
   | Atomic Solver: Koelling-Harmon                           |                
   |                                                          |                
   |               Reference Electronic Structure             |                
   |         Orbital         Occupation         Energy        |                
   |            3d              8.000           -0.324        |                
   |            4s              2.000           -0.204        |                
   |                                                          |                
   |                 Pseudopotential Definition               |                
   |        Beta     l      e      Rc     scheme   norm       |                
   |          1      0   -0.204   2.401     qc      0         |                
   |          2      0    0.250   2.401     qc      0         |                
   |          3      1    0.000   2.401     qc      0         |                
   |          4      1    0.250   2.401     qc      0         |                
   |          5      2   -0.324   1.999     qc      0         |                
   |          6      2    0.250   1.999     qc      0         |                
   |         loc     3    0.000   2.401     pn      0         |                
   |                                                          |                
   | Augmentation charge Rinner = 1.001                       |                
   | Partial core correction Rc = 1.001                       |                
   ------------------------------------------------------------                
   | "3|2.4|2.4|1.0|8|9|10|40:41:32U2U2(qc=5.5)"              |                
   ------------------------------------------------------------                
   |      Author: Chris J. Pickard, Cambridge University      |                
   ============================================================                
 
 Pseudo atomic calculation performed for Al 3s2 3p1
 
 Converged in 13 iterations to a total energy of -107.6592 eV
 
 Pseudo atomic calculation performed for Ni 3d8 4s2
 
 Converged in 41 iterations to a total energy of -1369.7891 eV
 Calculation parallelised over 48 processes.
 Data is distributed by G-vector(48-way)

 ************************************ Title ************************************
 

 ***************************** General Parameters ******************************
  
 output verbosity                               : normal  (1)
 write checkpoint data to                       : castep.check
 type of calculation                            : geometry optimization
 stress calculation                             : off
 density difference calculation                 : off
 electron localisation func (ELF) calculation   : off
 Hirshfeld analysis                             : off
 molecular orbital projected DOS                : off
 deltaSCF calculation                           : off
 unlimited duration calculation
 timing information                             : on
 memory usage estimate                          : on
 write extra output files                       : on
 write final potential to formatted file        : off
 write final density to formatted file          : off
 write BibTeX reference list                    : on
 write OTFG pseudopotential files               : on
 write electrostatic potential file             : on
 write bands file                               : on
 checkpoint writing                             : both castep_bin and check files
  
 output         length unit                     : A
 output           mass unit                     : amu
 output           time unit                     : ps
 output         charge unit                     : e
 output           spin unit                     : hbar/2
 output         energy unit                     : eV
 output          force unit                     : eV/A
 output       velocity unit                     : A/ps
 output       pressure unit                     : GPa
 output     inv_length unit                     : 1/A
 output      frequency unit                     : cm-1
 output force constant unit                     : eV/A**2
 output         volume unit                     : A**3
 output   IR intensity unit                     : (D/A)**2/amu
 output         dipole unit                     : D
 output         efield unit                     : eV/A/e
 output        entropy unit                     : J/mol/K
 output    efield chi2 unit                     : pm/V
  
 wavefunctions paging                           : none
 random number generator seed                   : randomised (143349092)
 data distribution                              : optimal for this architecture
 optimization strategy                          : maximize speed(+++)

 *********************** Exchange-Correlation Parameters ***********************
  
 using functional                               : revised Perdew Burke Ernzerhof
 relativistic treatment                         : Koelling-Harmon
 DFT+D: Semi-empirical dispersion correction    : off

 ************************* Pseudopotential Parameters **************************
  
 pseudopotential representation                 : reciprocal space
 <beta|phi> representation                      : reciprocal space
 spin-orbit coupling                            : off

 **************************** Basis Set Parameters *****************************
  
 plane wave basis set cut-off                   :   900.0000   eV
 size of standard grid                          :     1.7500
 size of   fine   gmax                          :    26.8966   1/A
 finite basis set correction                    : none

 **************************** Electronic Parameters ****************************
  
 number of  electrons                           :  2109.    
 net charge of system                           :  0.000    
 net spin   of system                           :  1.000    
 number of  up  spins                           :  1055.    
 number of down spins                           :  1054.    
 treating system as spin-polarized
 number of bands                                :       1167

 ********************* Electronic Minimization Parameters **********************
  
 Method: Treating system as metallic with density mixing treatment of electrons,
         and number of  SD  steps               :          1
         and number of  CG  steps               :          4
  
 total energy / atom convergence tol.           : 0.1000E-05   eV
 eigen-energy convergence tolerance             : 0.2185E-06   eV
 max force / atom convergence tol.              : ignored
 convergence tolerance window                   :          3   cycles
 max. number of SCF cycles                      :        200
 number of fixed-spin iterations                :         10
 smearing scheme                                : Gaussian
 smearing width                                 : 0.2000       eV
 Fermi energy convergence tolerance             : 0.2721E-13   eV
 periodic dipole correction                     : NONE
 periodically dump wavefunctions to             : castep.wvfn
 dump wavefunctions every                       :          1   SCF cycles

 ************************** Density Mixing Parameters **************************
  
 density-mixing scheme                          : Pulay
 max. length of mixing history                  :         20
 charge density mixing amplitude                : 0.8000    
   spin density mixing amplitude                :  2.000    
 cut-off energy for mixing                      :  900.0       eV

 *********************** Population Analysis Parameters ************************
  
 Population analysis with cutoff                :  3.000       A
 Population analysis output                     : summary and pdos components

 ********************** Geometry Optimization Parameters ***********************
  
 optimization method                            : LBFGS
 max. no. of LBFGS updates                      : unbounded
 variable cell method                           : fixed basis quality
 max. number of steps                           :         30
 estimated bulk modulus                         :  500.0       GPa
 estimated <frequency>                          :  1668.       cm-1
 geom line minimiser                            : on
 with line minimiser tolerance                  :     0.4000
  with spin fully able to relax for all steps
 total energy convergence tolerance             : 0.2000E-04   eV/atom
        max ionic |force| tolerance             : 0.5000E-01   eV/A
 max ionic |displacement| tolerance             : 0.1000E-02   A
   max |stress component| tolerance             : 0.1000       GPa
 convergence tolerance window                   :          2   steps
 backup results every                           :          5   steps
 write geom trajectory file                     : on

 *******************************************************************************
  
 
                           -------------------------------
                                      Unit Cell
                           -------------------------------
        Real Lattice(A)                      Reciprocal Lattice(1/A)
    14.4648280     0.0000000     0.0000000        0.434376773   0.000000000   0.000000000
     0.0000000    14.4648280     0.0000000        0.000000000   0.434376773   0.000000000
     0.0000000     0.0000000    14.4648280        0.000000000   0.000000000   0.434376773
 
                       Lattice parameters(A)       Cell Angles
                    a =     14.464828          alpha =   90.000000
                    b =     14.464828          beta  =   90.000000
                    c =     14.464828          gamma =   90.000000
 
                       Current cell volume =          3026.494030       A**3
                                   density =             4.285146   AMU/A**3
                                           =             7.115653     g/cm^3
 
                           -------------------------------
                                     Cell Contents
                           -------------------------------
                         Total number of ions in cell =  255
                      Total number of species in cell =    2
                        Max number of any one species =  192
 
            xxxxxxxxxxxxxxxxxxxxxxxxxxxxxxxxxxxxxxxxxxxxxxxxxxxxxxxxxxxx
            x  Element    Atom        Fractional coordinates of atoms  x
            x            Number           u          v          w      x
            x----------------------------------------------------------x
            x  Al           1         0.570704   0.307409   0.064466   x 
            x  Al           2         0.818248   0.309206   0.063216   x 
            x  Al           3         0.569890   0.559264   0.065835   x 
            x  Al           4         0.817594   0.558238   0.063655   x 
            x  Al           5         0.575315   0.809632   0.060340   x 
            x  Al           6         0.819097   0.807797   0.062785   x 
            x  Al           7         0.572251   0.058441   0.063465   x 
            x  Al           8         0.819965   0.059143   0.062437   x 
            x  Al           9         0.569613   0.305955   0.312682   x 
            x  Al          10         0.817809   0.308655   0.313937   x 
            x  Al          11         0.573355   0.554874   0.311886   x 
            x  Al          12         0.816692   0.558096   0.313976   x 
            x  Al          13         0.577335   0.814382   0.313143   x 
            x  Al          14         0.819188   0.808323   0.313555   x 
            x  Al          15         0.574365   0.057118   0.309370   x 
            x  Al          16         0.819966   0.058967   0.313363   x 
            x  Al          17         0.570283   0.306338   0.562131   x 
            x  Al          18         0.817075   0.309539   0.563355   x 
            x  Al          19         0.567343   0.559709   0.561506   x 
            x  Al          20         0.816089   0.558296   0.563093   x 
            x  Al          21         0.574654   0.809398   0.566239   x 
            x  Al          22         0.818572   0.807345   0.564024   x 
            x  Al          23         0.577138   0.057430   0.569281   x 
            x  Al          24         0.819622   0.058860   0.564176   x 
            x  Al          25         0.571637   0.308632   0.813991   x 
            x  Al          26         0.817117   0.310219   0.813219   x 
            x  Al          27         0.568937   0.558947   0.814874   x 
            x  Al          28         0.816563   0.557893   0.813051   x 
            x  Al          29         0.570703   0.808498   0.814476   x 
            x  Al          30         0.819223   0.807159   0.813539   x 
            x  Al          31         0.572558   0.057944   0.813105   x 
            x  Al          32         0.820032   0.059088   0.813975   x 
            x  Al          33         0.328673   0.182468   0.934408   x 
            x  Al          34         0.056309   0.057828   0.808040   x 
            x  Al          35         0.192984   0.190303   0.805085   x 
            x  Al          36         0.321478   0.935462   0.939664   x 
            x  Al          37         0.192688   0.929545   0.805055   x 
            x  Al          38         0.318582   0.689967   0.944269   x 
            x  Al          39         0.074761   0.687573   0.929594   x 
            x  Al          40         0.198680   0.188640   0.572709   x 
            x  Al          41         0.067335   0.805447   0.565931   x 
            x  Al          42         0.326105   0.684966   0.688958   x 
            x  Al          43         0.194383   0.667442   0.563667   x 
            x  Al          44         0.337236   0.428730   0.680795   x 
            x  Al          45         0.328536   0.555017   0.819994   x 
            x  Al          46         0.192230   0.432849   0.556879   x 
            x  Al          47         0.063818   0.435391   0.688530   x 
            x  Al          48         0.317534   0.060383   0.312327   x 
            x  Al          49         0.440415   0.057060   0.445066   x 
            x  Al          50         0.185866   0.054897   0.185584   x 
            x  Al          51         0.068518   0.185176   0.441828   x 
            x  Al          52         0.433474   0.814666   0.439796   x 
            x  Al          53         0.070951   0.945103   0.442385   x 
            x  Al          54         0.201477   0.808504   0.432186   x 
            x  Al          55         0.432149   0.677786   0.310312   x 
            x  Al          56         0.334540   0.430828   0.439262   x 
            x  Al          57         0.188508   0.425171   0.313513   x 
            x  Al          58         0.187107   0.186339   0.057690   x 
            x  Al          59         0.434356   0.816940   0.185510   x 
            x  Al          60         0.191725   0.811551   0.187888   x 
            x  Al          61         0.191589   0.426142   0.055731   x 
            x  Al          62         0.193526   0.427324   0.821460   x 
            x  Al          63         0.188911   0.565160   0.184529   x 
            x  Ni           1         0.568086   0.431578   0.187872   x 
            x  Ni           2         0.694190   0.307830   0.188616   x 
            x  Ni           3         0.693654   0.433455   0.064139   x 
            x  Ni           4         0.817443   0.433622   0.189090   x 
            x  Ni           5         0.942282   0.309350   0.188499   x 
            x  Ni           6         0.942027   0.434079   0.063307   x 
            x  Ni           7         0.564538   0.687879   0.191550   x 
            x  Ni           8         0.693035   0.558931   0.188582   x 
            x  Ni           9         0.693541   0.683084   0.064432   x 
            x  Ni          10         0.818574   0.683031   0.188583   x 
            x  Ni          11         0.941936   0.558342   0.188695   x 
            x  Ni          12         0.942517   0.682759   0.063189   x 
            x  Ni          13         0.569271   0.932614   0.186042   x 
            x  Ni          14         0.695880   0.808932   0.187463   x 
            x  Ni          15         0.696473   0.934208   0.062174   x 
            x  Ni          16         0.820190   0.933578   0.187593   x 
            x  Ni          17         0.942726   0.807884   0.188148   x 
            x  Ni          18         0.943291   0.933127   0.062746   x 
            x  Ni          19         0.569018   0.182485   0.187735   x 
            x  Ni          20         0.696292   0.058327   0.186927   x 
            x  Ni          21         0.694847   0.183631   0.062927   x 
            x  Ni          22         0.819210   0.183988   0.188065   x 
            x  Ni          23         0.943201   0.058862   0.187985   x 
            x  Ni          24         0.943037   0.184549   0.062971   x 
            x  Ni          25         0.562018   0.432035   0.441266   x 
            x  Ni          26         0.691778   0.307449   0.438025   x 
            x  Ni          27         0.692014   0.431825   0.314581   x 
            x  Ni          28         0.816723   0.433647   0.438724   x 
            x  Ni          29         0.942211   0.309352   0.438833   x 
            x  Ni          30         0.941757   0.433964   0.313828   x 
            x  Ni          31         0.563818   0.688614   0.433553   x 
            x  Ni          32         0.690685   0.558876   0.438130   x 
            x  Ni          33         0.693688   0.683937   0.313271   x 
            x  Ni          34         0.817654   0.682950   0.438638   x 
            x  Ni          35         0.941798   0.558436   0.438703   x 
            x  Ni          36         0.942236   0.682951   0.313701   x 
            x  Ni          37         0.568147   0.934983   0.440406   x 
            x  Ni          38         0.694875   0.809437   0.439113   x 
            x  Ni          39         0.697451   0.934901   0.313149   x 
            x  Ni          40         0.820067   0.933474   0.439064   x 
            x  Ni          41         0.942641   0.807807   0.438874   x 
            x  Ni          42         0.942988   0.933263   0.313446   x 
            x  Ni          43         0.568963   0.177789   0.438273   x 
            x  Ni          44         0.695430   0.057654   0.438960   x 
            x  Ni          45         0.694967   0.182748   0.313166   x 
            x  Ni          46         0.818724   0.183904   0.438659   x 
            x  Ni          47         0.943248   0.058812   0.438933   x 
            x  Ni          48         0.942747   0.184220   0.313554   x 
            x  Ni          49         0.563630   0.433792   0.683287   x 
            x  Ni          50         0.692610   0.309596   0.688199   x 
            x  Ni          51         0.690944   0.433684   0.562338   x 
            x  Ni          52         0.816566   0.434355   0.687930   x 
            x  Ni          53         0.942359   0.309922   0.688358   x 
            x  Ni          54         0.941926   0.434234   0.563506   x 
            x  Ni          55         0.567428   0.684525   0.689585   x 
            x  Ni          56         0.690521   0.558325   0.687821   x 
            x  Ni          57         0.691773   0.682953   0.562494   x 
            x  Ni          58         0.817361   0.682048   0.688197   x 
            x  Ni          59         0.942034   0.558360   0.688195   x 
            x  Ni          60         0.942249   0.682708   0.563636   x 
            x  Ni          61         0.570510   0.932729   0.690711   x 
            x  Ni          62         0.695252   0.807624   0.689946   x 
            x  Ni          63         0.696981   0.933152   0.564836   x 
            x  Ni          64         0.820089   0.932776   0.689384   x 
            x  Ni          65         0.942845   0.807335   0.688590   x 
            x  Ni          66         0.943110   0.933036   0.564044   x 
            x  Ni          67         0.571306   0.182277   0.689648   x 
            x  Ni          68         0.697557   0.058303   0.690556   x 
            x  Ni          69         0.695486   0.183731   0.563795   x 
            x  Ni          70         0.818896   0.185014   0.688977   x 
            x  Ni          71         0.943173   0.058928   0.688754   x 
            x  Ni          72         0.942573   0.184493   0.563799   x 
            x  Ni          73         0.568010   0.433793   0.941155   x 
            x  Ni          74         0.693262   0.308976   0.938855   x 
            x  Ni          75         0.690440   0.434403   0.812621   x 
            x  Ni          76         0.817125   0.434069   0.937979   x 
            x  Ni          77         0.942556   0.309802   0.937918   x 
            x  Ni          78         0.942132   0.434283   0.813023   x 
            x  Ni          79         0.568189   0.684292   0.939322   x 
            x  Ni          80         0.692463   0.558434   0.939287   x 
            x  Ni          81         0.693185   0.682531   0.813758   x 
            x  Ni          82         0.818070   0.682286   0.938424   x 
            x  Ni          83         0.942222   0.558269   0.938124   x 
            x  Ni          84         0.942405   0.682372   0.813204   x 
            x  Ni          85         0.569601   0.934263   0.937541   x 
            x  Ni          86         0.695693   0.808110   0.937586   x 
            x  Ni          87         0.696001   0.933035   0.814107   x 
            x  Ni          88         0.819993   0.933417   0.937905   x 
            x  Ni          89         0.942901   0.807523   0.938089   x 
            x  Ni          90         0.943642   0.933001   0.813410   x 
            x  Ni          91         0.568741   0.182412   0.938497   x 
            x  Ni          92         0.695331   0.058888   0.937966   x 
            x  Ni          93         0.694899   0.184230   0.814153   x 
            x  Ni          94         0.819134   0.184663   0.938122   x 
            x  Ni          95         0.943691   0.058985   0.937931   x 
            x  Ni          96         0.943074   0.184932   0.813257   x 
            x  Ni          97         0.071319   0.430804   0.184377   x 
            x  Ni          98         0.191718   0.305943   0.185082   x 
            x  Ni          99         0.064554   0.305674   0.059090   x 
            x  Ni         100         0.312292   0.432127   0.185407   x 
            x  Ni         101         0.442915   0.305779   0.188488   x 
            x  Ni         102         0.317116   0.557902   0.062246   x 
            x  Ni         103         0.320129   0.304290   0.061908   x 
            x  Ni         104         0.065611   0.560646   0.056932   x 
            x  Ni         105         0.065444   0.687319   0.187119   x 
            x  Ni         106         0.314953   0.684744   0.183925   x 
            x  Ni         107         0.442369   0.558221   0.187172   x 
            x  Ni         108         0.444612   0.686767   0.066203   x 
            x  Ni         109         0.190065   0.686600   0.061266   x 
            x  Ni         110         0.065983   0.934452   0.186201   x 
            x  Ni         111         0.316480   0.813056   0.062785   x 
            x  Ni         112         0.189886   0.936592   0.058188   x 
            x  Ni         113         0.313682   0.938973   0.185445   x 
            x  Ni         114         0.318272   0.811199   0.310117   x 
            x  Ni         115         0.444846   0.936015   0.062482   x 
            x  Ni         116         0.065545   0.181136   0.184605   x 
            x  Ni         117         0.315615   0.061874   0.059994   x 
            x  Ni         118         0.066723   0.058574   0.056329   x 
            x  Ni         119         0.314682   0.179889   0.186197   x 
            x  Ni         120         0.443284   0.057075   0.187919   x 
            x  Ni         121         0.445096   0.181864   0.063898   x 
            x  Ni         122         0.192979   0.061180   0.928631   x 
            x  Ni         123         0.065426   0.430630   0.438185   x 
            x  Ni         124         0.194670   0.307066   0.439383   x 
            x  Ni         125         0.063974   0.304265   0.312353   x 
            x  Ni         126         0.447653   0.303074   0.436702   x 
            x  Ni         127         0.443908   0.432494   0.309809   x 
            x  Ni         128         0.319997   0.306566   0.312169   x 
            x  Ni         129         0.071869   0.683635   0.440495   x 
            x  Ni         130         0.194032   0.552354   0.434325   x 
            x  Ni         131         0.192450   0.682984   0.311575   x 
            x  Ni         132         0.066932   0.557821   0.311797   x 
            x  Ni         133         0.316431   0.680130   0.438465   x 
            x  Ni         134         0.445792   0.560127   0.434340   x 
            x  Ni         135         0.314491   0.552762   0.309636   x 
            x  Ni         136         0.066975   0.060707   0.313900   x 
            x  Ni         137         0.070341   0.813700   0.316909   x 
            x  Ni         138         0.315045   0.937896   0.440242   x 
            x  Ni         139         0.444062   0.936400   0.314239   x 
            x  Ni         140         0.191264   0.937620   0.313592   x 
            x  Ni         141         0.194728   0.063959   0.441504   x 
            x  Ni         142         0.191122   0.184133   0.311580   x 
            x  Ni         143         0.318009   0.182933   0.439753   x 
            x  Ni         144         0.443770   0.178609   0.313280   x 
            x  Ni         145         0.065325   0.309463   0.564903   x 
            x  Ni         146         0.450584   0.305311   0.687000   x 
            x  Ni         147         0.325613   0.310460   0.561706   x 
            x  Ni         148         0.067112   0.678446   0.688910   x 
            x  Ni         149         0.064712   0.555893   0.564440   x 
            x  Ni         150         0.200300   0.547763   0.692013   x 
            x  Ni         151         0.446824   0.560292   0.688537   x 
            x  Ni         152         0.445058   0.685612   0.560665   x 
            x  Ni         153         0.325761   0.552962   0.562962   x 
            x  Ni         154         0.065133   0.931753   0.686561   x 
            x  Ni         155         0.193445   0.802497   0.684662   x 
            x  Ni         156         0.191681   0.933024   0.565424   x 
            x  Ni         157         0.318347   0.931752   0.688669   x 
            x  Ni         158         0.445856   0.809509   0.686996   x 
            x  Ni         159         0.444353   0.933494   0.565328   x 
            x  Ni         160         0.316070   0.806005   0.563814   x 
            x  Ni         161         0.065585   0.186304   0.686912   x 
            x  Ni         162         0.191404   0.059268   0.691302   x 
            x  Ni         163         0.068534   0.062376   0.566308   x 
            x  Ni         164         0.320919   0.186003   0.690276   x 
            x  Ni         165         0.446308   0.057522   0.687644   x 
            x  Ni         166         0.445743   0.181003   0.564574   x 
            x  Ni         167         0.318098   0.059611   0.568010   x 
            x  Ni         168         0.066446   0.431431   0.935027   x 
            x  Ni         169         0.194918   0.302880   0.935281   x 
            x  Ni         170         0.195586   0.318224   0.687280   x 
            x  Ni         171         0.063920   0.309014   0.808678   x 
            x  Ni         172         0.320753   0.431439   0.939475   x 
            x  Ni         173         0.447877   0.307718   0.939513   x 
            x  Ni         174         0.448079   0.432536   0.814664   x 
            x  Ni         175         0.324241   0.309969   0.812599   x 
            x  Ni         176         0.067219   0.810936   0.058600   x 
            x  Ni         177         0.194460   0.558444   0.937824   x 
            x  Ni         178         0.199945   0.680074   0.810566   x 
            x  Ni         179         0.066459   0.557294   0.812431   x 
            x  Ni         180         0.442670   0.431829   0.065917   x 
            x  Ni         181         0.443711   0.684733   0.816362   x 
            x  Ni         182         0.445393   0.559961   0.943751   x 
            x  Ni         183         0.068184   0.932513   0.930556   x 
            x  Ni         184         0.194825   0.811523   0.934713   x 
            x  Ni         185         0.066735   0.807092   0.808063   x 
            x  Ni         186         0.445029   0.810621   0.940787   x 
            x  Ni         187         0.444837   0.933842   0.813072   x 
            x  Ni         188         0.321263   0.809441   0.813363   x 
            x  Ni         189         0.066442   0.183155   0.930665   x 
            x  Ni         190         0.320337   0.057862   0.811387   x 
            x  Ni         191         0.446350   0.057547   0.937915   x 
            x  Ni         192         0.447075   0.182445   0.811953   x 
            xxxxxxxxxxxxxxxxxxxxxxxxxxxxxxxxxxxxxxxxxxxxxxxxxxxxxxxxxxxx
 
 
                         No user defined ionic velocities
 
                           -------------------------------
                                   Details of Species
                           -------------------------------
 
                               Mass of species in AMU
                                    Al   26.9815400
                                    Ni   58.6934000
 
                          Electric Quadrupole Moment (Barn)
                                    Al    0.1466000 Isotope 27
                                    Ni    0.1620000 Isotope 61
 
                          Files used for pseudopotentials:
                                    Al 3|2.2|2.2|1.4|4|5|5|30:31:32U2U2
                                    Ni 3|2.4|2.4|1.0|8|9|10|40:41:32U2U2(qc=5.5)
 
                           -------------------------------
                              k-Points For BZ Sampling
                           -------------------------------
                       MP grid size for SCF calculation is  1  1  1
                            with an offset of   0.000  0.000  0.000
                       Number of kpoints used =             1
 
                           -------------------------------
                               Symmetry and Constraints
                           -------------------------------
 
                      Maximum deviation from symmetry =  0.00000         ANG
 
                      Number of symmetry operations   =           1
                      Number of ionic constraints     =           3
                      Point group of crystal =     1: C1, 1, 1
                      Space group of crystal =     1: P1, P 1
 
             Set iprint > 1 for details on symmetry rotations/translations
 
                         Centre of mass is constrained
             Set iprint > 1 for details of linear ionic constraints
 
                         Number of cell constraints= 6
                         Cell constraints are:  0 0 0 0 0 0
 
                         External pressure/stress (GPa)
                          0.00000   0.00000   0.00000
                                    0.00000   0.00000
                                              0.00000
  
+---------------- MEMORY AND SCRATCH DISK ESTIMATES PER PROCESS --------------+
|                                                     Memory          Disk    |
| Baseline code, static data and system overhead      622.0 MB         0.0 MB |
| BLAS internal memory storage                          0.0 MB         0.0 MB |
| Model and support data                              741.5 MB         0.0 MB |
| Electronic energy minimisation requirements         236.0 MB         0.0 MB |
| Force calculation requirements                        7.9 MB         0.0 MB |
|                                               ----------------------------- |
| Approx. total storage required per process         1599.5 MB         0.0 MB |
|                                                                             |
| Requirements will fluctuate during execution and may exceed these estimates |
+-----------------------------------------------------------------------------+
Calculating total energy with cut-off of  900.000 eV.
------------------------------------------------------------------------ <-- SCF
SCF loop      Energy           Fermi           Energy gain       Timer   <-- SCF
                               energy          per atom          (sec)   <-- SCF
------------------------------------------------------------------------ <-- SCF
Initial  -2.19133846E+005  0.00000000E+000                        20.58  <-- SCF
      1  -2.63664909E+005  7.13489808E+000   1.74631617E+002     107.90  <-- SCF
      2  -2.70649434E+005  3.66229294E+000   2.73902967E+001     190.59  <-- SCF
      3  -2.71370027E+005  3.53612581E+000   2.82585216E+000     277.17  <-- SCF
      4  -2.71426403E+005  3.65360287E+000   2.21084800E-001     354.79  <-- SCF
      5  -2.71710960E+005  6.62259594E+000   1.11590881E+000     449.30  <-- SCF
      6  -2.71508559E+005  5.53786335E+000  -7.93728443E-001     563.99  <-- SCF
      7  -2.71402907E+005  4.53779762E+000  -4.14324457E-001     675.94  <-- SCF
      8  -2.71386709E+005  4.41427872E+000  -6.35184608E-002     790.21  <-- SCF
      9  -2.71397669E+005  4.48487919E+000   4.29782089E-002     893.33  <-- SCF
     10  -2.71395025E+005  4.43903353E+000  -1.03673380E-002    1002.21  <-- SCF
     11  -2.72232672E+005  6.19080874E+000   3.28489104E+000    1110.99  <-- SCF
     12  -2.72245111E+005  6.14603095E+000   4.87796289E-002    1201.29  <-- SCF
     13  -2.71492589E+005  4.80842107E+000  -2.95106815E+000    1330.98  <-- SCF
     14  -2.71565718E+005  4.82006504E+000   2.86780083E-001    1417.57  <-- SCF
     15  -2.71434169E+005  4.32505532E+000  -5.15876081E-001    1519.16  <-- SCF
     16  -2.71398272E+005  4.22131175E+000  -1.40772469E-001    1620.62  <-- SCF
     17  -2.71392956E+005  4.28268582E+000  -2.08475221E-002    1715.88  <-- SCF
     18  -2.71389990E+005  4.34150588E+000  -1.16316041E-002    1809.80  <-- SCF
     19  -2.71387683E+005  4.36434587E+000  -9.04821967E-003    1905.74  <-- SCF
     20  -2.71386185E+005  4.36485425E+000  -5.87552902E-003    1999.67  <-- SCF
     21  -2.71385836E+005  4.35543920E+000  -1.36592341E-003    2093.76  <-- SCF
     22  -2.71385684E+005  4.34992813E+000  -5.96876928E-004    2186.93  <-- SCF
     23  -2.71385554E+005  4.35180976E+000  -5.09896904E-004    2281.82  <-- SCF
     24  -2.71385476E+005  4.36250373E+000  -3.06523955E-004    2376.78  <-- SCF
     25  -2.71385416E+005  4.36586268E+000  -2.35243257E-004    2470.16  <-- SCF
     26  -2.71385269E+005  4.37074370E+000  -5.76832183E-004    2563.23  <-- SCF
     27  -2.71385181E+005  4.37313935E+000  -3.45470620E-004    2658.89  <-- SCF
     28  -2.71385165E+005  4.37447192E+000  -6.29125737E-005    2755.64  <-- SCF
     29  -2.71385145E+005  4.37738537E+000  -7.54285221E-005    2849.98  <-- SCF
     30  -2.71385143E+005  4.37800302E+000  -1.10111819E-005    2939.70  <-- SCF
     31  -2.71385142E+005  4.37883817E+000  -2.50123617E-006    3026.33  <-- SCF
     32  -2.71385140E+005  4.37970882E+000  -8.72900509E-006    3113.78  <-- SCF
     33  -2.71385139E+005  4.37985242E+000  -1.16371814E-006    3178.07  <-- SCF
     34  -2.71385140E+005  4.38005865E+000   6.39714725E-007    3239.13  <-- SCF
     35  -2.71385139E+005  4.37985225E+000  -7.62973291E-007    3301.78  <-- SCF
------------------------------------------------------------------------ <-- SCF
 
Integrated Spin Density     =    0.131841     hbar/2                        
Integrated |Spin Density|   =    0.210793     hbar/2                        
 
Final energy, E             =  -271380.6445253     eV
Final free energy (E-TS)    =  -271385.1393872     eV
(energies not corrected for finite basis set)
 
NB est. 0K energy (E-0.5TS)      =  -271382.8919563     eV
 

Writing analysis data to castep.castep_bin

Writing model to castep.check
 
+---------------- MEMORY AND SCRATCH DISK ESTIMATES PER PROCESS --------------+
|                                                     Memory          Disk    |
| Model and support data                              750.6 MB         0.0 MB |
| Electronic energy minimisation requirements         236.0 MB         0.0 MB |
| Geometry minimisation requirements                  309.4 MB         0.0 MB |
|                                               ----------------------------- |
| Approx. total storage required per process         1296.0 MB         0.0 MB |
|                                                                             |
| Requirements will fluctuate during execution and may exceed these estimates |
+-----------------------------------------------------------------------------+
 
 
 ************************************** Forces **************************************
 *                                                                                  *
 *                           Cartesian components (eV/A)                            *
 * -------------------------------------------------------------------------------- *
 *                         x                    y                    z              *
 *                                                                                  *
 * Al              1     -0.11872             -0.00530             -0.02728         *
 * Al              2      0.04714             -0.02522             -0.00505         *
 * Al              3     -0.10624             -0.02143              0.00858         *
 * Al              4      0.08439             -0.01087              0.00539         *
 * Al              5     -0.08396              0.00034             -0.13393         *
 * Al              6      0.11999              0.02605              0.00541         *
 * Al              7     -0.16031              0.03723             -0.02761         *
 * Al              8      0.07028              0.01723             -0.02532         *
 * Al              9     -0.08851              0.04956             -0.02209         *
 * Al             10      0.06417              0.01144             -0.02664         *
 * Al             11     -0.05697             -0.13403             -0.01549         *
 * Al             12      0.10604              0.00261             -0.01364         *
 * Al             13      0.34914              0.07413             -0.01313         *
 * Al             14      0.05147             -0.04040             -0.03502         *
 * Al             15     -0.02885              0.00883             -0.11275         *
 * Al             16      0.08209              0.02991             -0.02643         *
 * Al             17     -0.20442              0.05538              0.01216         *
 * Al             18      0.05194              0.01553             -0.00649         *
 * Al             19     -0.16407             -0.08088             -0.01344         *
 * Al             20      0.08829              0.00800             -0.01589         *
 * Al             21     -0.02934              0.02775              0.12951         *
 * Al             22      0.11406             -0.00497              0.00040         *
 * Al             23      0.01164              0.00700              0.11816         *
 * Al             24      0.02621             -0.00022             -0.01267         *
 * Al             25     -0.12357             -0.05798              0.01582         *
 * Al             26      0.00675             -0.02447              0.01285         *
 * Al             27     -0.12112             -0.00899              0.02639         *
 * Al             28      0.07234              0.02531              0.00700         *
 * Al             29     -0.15262              0.05077              0.01016         *
 * Al             30      0.05693              0.00500              0.01730         *
 * Al             31     -0.18833              0.02338              0.01375         *
 * Al             32      0.09086             -0.02616              0.03214         *
 * Al             33      0.13610              0.10210              0.12282         *
 * Al             34      0.30815              0.16256              0.29249         *
 * Al             35     -0.03503             -0.00775             -0.07436         *
 * Al             36      0.16430              0.04952              0.21414         *
 * Al             37     -0.04923             -0.29075             -0.04888         *
 * Al             38      0.04913              0.06838              0.19143         *
 * Al             39     -0.56817             -0.28651              0.53479         *
 * Al             40      0.14786             -0.17214             -0.03525         *
 * Al             41     -0.76255             -0.03306              0.60042         *
 * Al             42      0.21593              0.29878             -0.07090         *
 * Al             43     -0.07532             -0.17726             -0.05935         *
 * Al             44      0.20709             -0.15949             -0.22144         *
 * Al             45     -0.03982              0.00758              0.15179         *
 * Al             46     -0.04942              0.09166             -0.12791         *
 * Al             47     -0.62833             -0.08613              0.03445         *
 * Al             48     -0.24068             -0.06981             -0.02823         *
 * Al             49      0.01731              0.16329              0.13452         *
 * Al             50     -0.29611              0.05042             -0.04603         *
 * Al             51     -0.52045             -0.08983             -0.66912         *
 * Al             52     -0.12672              0.06302              0.20144         *
 * Al             53     -0.60716             -0.02625             -0.64702         *
 * Al             54      0.09602             -0.06263             -0.16954         *
 * Al             55     -0.18121             -0.19874             -0.04065         *
 * Al             56      0.24066              0.00530             -0.06588         *
 * Al             57     -0.20272             -0.10922             -0.11857         *
 * Al             58     -0.08656              0.03146              0.13355         *
 * Al             59     -0.00614              0.09048             -0.27415         *
 * Al             60     -0.19247             -0.03163             -0.14397         *
 * Al             61      0.01013              0.04323              0.01042         *
 * Al             62     -0.15770             -0.02077              0.26017         *
 * Al             63     -0.03799              0.11237             -0.00668         *
 * Ni              1     -0.00348              0.05002             -0.04653         *
 * Ni              2      0.00667             -0.00538              0.01464         *
 * Ni              3      0.02494              0.01905              0.01705         *
 * Ni              4      0.09570             -0.01167             -0.00165         *
 * Ni              5      0.18522             -0.03327             -0.05006         *
 * Ni              6      0.16406              0.04405             -0.05356         *
 * Ni              7      0.11963              0.20430              0.30754         *
 * Ni              8      0.02791             -0.01309              0.01565         *
 * Ni              9      0.03893              0.00400             -0.02344         *
 * Ni             10     -0.00956              0.00294              0.02364         *
 * Ni             11      0.37686             -0.05815             -0.06591         *
 * Ni             12      0.22320              0.09976             -0.03244         *
 * Ni             13      0.10047             -0.15366              0.18042         *
 * Ni             14     -0.05997             -0.01219              0.00368         *
 * Ni             15     -0.09138             -0.02451              0.03452         *
 * Ni             16     -0.02317              0.00167             -0.01432         *
 * Ni             17      0.17750              0.11659              0.01007         *
 * Ni             18      0.14756             -0.00559             -0.15227         *
 * Ni             19     -0.00106             -0.00533              0.08549         *
 * Ni             20      0.05366              0.00885              0.00578         *
 * Ni             21     -0.00882             -0.00455             -0.00939         *
 * Ni             22      0.02605              0.00563             -0.02289         *
 * Ni             23      0.20463             -0.00678             -0.04587         *
 * Ni             24      0.06147             -0.13244             -0.13588         *
 * Ni             25      0.22679              0.04939             -0.20887         *
 * Ni             26      0.07628              0.05962              0.02711         *
 * Ni             27      0.07937              0.00016             -0.03169         *
 * Ni             28      0.03243              0.01649             -0.05852         *
 * Ni             29      0.11160              0.06356             -0.00298         *
 * Ni             30      0.26212             -0.06355             -0.11356         *
 * Ni             31      0.14277              0.20991             -0.26473         *
 * Ni             32      0.00352             -0.03267              0.03594         *
 * Ni             33     -0.05316              0.02500              0.00647         *
 * Ni             34     -0.03430             -0.06973             -0.02459         *
 * Ni             35      0.24071             -0.00611             -0.00885         *
 * Ni             36      0.31288              0.09447              0.05401         *
 * Ni             37      0.20869             -0.05121             -0.07123         *
 * Ni             38      0.02683             -0.02789             -0.00100         *
 * Ni             39     -0.07602              0.00051              0.02284         *
 * Ni             40     -0.01780             -0.04009             -0.02255         *
 * Ni             41      0.41190              0.00709             -0.02530         *
 * Ni             42      0.26874              0.06516             -0.05671         *
 * Ni             43      0.08994             -0.04680              0.03052         *
 * Ni             44      0.09338             -0.00693             -0.01011         *
 * Ni             45     -0.03352             -0.01156              0.02663         *
 * Ni             46      0.02149              0.06547             -0.01121         *
 * Ni             47     -0.07957              0.14745              0.10414         *
 * Ni             48     -0.01118             -0.11434             -0.09757         *
 * Ni             49      0.20649             -0.05568              0.12805         *
 * Ni             50      0.00344             -0.02576             -0.02929         *
 * Ni             51     -0.09264              0.01243             -0.00878         *
 * Ni             52      0.08400             -0.01333              0.01119         *
 * Ni             53     -0.08358             -0.22746             -0.08240         *
 * Ni             54     -0.14807             -0.05843             -0.21741         *
 * Ni             55      0.09421              0.00213             -0.15631         *
 * Ni             56      0.02025              0.02582             -0.05047         *
 * Ni             57      0.02164              0.02209              0.01298         *
 * Ni             58     -0.00499              0.02269             -0.02219         *
 * Ni             59     -0.03816              0.20730              0.00037         *
 * Ni             60      0.11853             -0.12944             -0.04931         *
 * Ni             61      0.09834              0.05389             -0.16260         *
 * Ni             62     -0.00628             -0.00943              0.00478         *
 * Ni             63     -0.11317              0.00076             -0.05041         *
 * Ni             64     -0.03758              0.01175              0.01481         *
 * Ni             65      0.02228             -0.11461              0.09608         *
 * Ni             66      0.14900              0.02776             -0.04071         *
 * Ni             67      0.08419              0.00030             -0.14629         *
 * Ni             68     -0.00635             -0.00411             -0.00476         *
 * Ni             69     -0.01865             -0.03937             -0.02054         *
 * Ni             70      0.00326             -0.03408              0.00248         *
 * Ni             71     -0.22626              0.04913             -0.49986         *
 * Ni             72     -0.07629             -0.03651              0.11471         *
 * Ni             73      0.10131             -0.00675              0.05964         *
 * Ni             74      0.02738             -0.00316             -0.00333         *
 * Ni             75      0.09731             -0.00869              0.02678         *
 * Ni             76     -0.00455             -0.02887              0.03990         *
 * Ni             77      0.08938             -0.06355             -0.12941         *
 * Ni             78     -0.13027              0.00936              0.18487         *
 * Ni             79      0.11082             -0.03643              0.12927         *
 * Ni             80      0.03474              0.03159              0.00805         *
 * Ni             81      0.00936              0.02437             -0.00264         *
 * Ni             82      0.00045             -0.00732             -0.00564         *
 * Ni             83      0.11150             -0.05040             -0.11937         *
 * Ni             84      0.00950             -0.03095             -0.14011         *
 * Ni             85      0.12003             -0.00865              0.04550         *
 * Ni             86     -0.00163             -0.00335             -0.01281         *
 * Ni             87     -0.01232             -0.01103             -0.00473         *
 * Ni             88     -0.05469              0.02710              0.01950         *
 * Ni             89      0.14278              0.12099             -0.15611         *
 * Ni             90     -0.23314             -0.35087             -0.13124         *
 * Ni             91      0.12777              0.05876             -0.00820         *
 * Ni             92      0.00645             -0.03109              0.01203         *
 * Ni             93     -0.00649             -0.00330             -0.03093         *
 * Ni             94      0.01348              0.01372              0.01806         *
 * Ni             95     -0.11095             -0.07213              0.09360         *
 * Ni             96     -0.34651              0.26443             -0.13273         *
 * Ni             97     -0.27262              0.33486              0.07295         *
 * Ni             98      0.01421             -0.17765              0.17221         *
 * Ni             99      0.01139              0.29325              0.14240         *
 * Ni            100      0.22900              0.05824              0.12074         *
 * Ni            101     -0.20726              0.02980             -0.06747         *
 * Ni            102      0.03234             -0.10375              0.18194         *
 * Ni            103      0.09153              0.02433              0.06331         *
 * Ni            104      0.08002             -0.25493              0.44924         *
 * Ni            105     -0.07043             -0.17844              0.04114         *
 * Ni            106      0.32267             -0.05962              0.05458         *
 * Ni            107     -0.18490             -0.16221              0.00338         *
 * Ni            108     -0.07099             -0.00195              0.00506         *
 * Ni            109      0.01395             -0.00184             -0.04052         *
 * Ni            110     -0.16467             -0.17222              0.15386         *
 * Ni            111     -0.22177             -0.05198             -0.06002         *
 * Ni            112      0.03580             -0.14359             -0.04439         *
 * Ni            113      0.26177              0.13637              0.07180         *
 * Ni            114      0.01558             -0.02155              0.00917         *
 * Ni            115     -0.05968              0.01415              0.14005         *
 * Ni            116      0.08894              0.23372              0.17933         *
 * Ni            117      0.07327              0.01978              0.12819         *
 * Ni            118      0.11405             -0.00377              0.13300         *
 * Ni            119      0.16244              0.09408              0.02865         *
 * Ni            120     -0.02837              0.06377             -0.25561         *
 * Ni            121     -0.11894             -0.06376              0.24305         *
 * Ni            122     -0.17084             -0.05775              0.13414         *
 * Ni            123     -0.08631              0.15162             -0.14759         *
 * Ni            124      0.09903             -0.00523             -0.02394         *
 * Ni            125      0.16243              0.29683             -0.10289         *
 * Ni            126     -0.27514             -0.24443              0.06175         *
 * Ni            127     -0.04999             -0.05108             -0.11333         *
 * Ni            128     -0.17846             -0.08050              0.00696         *
 * Ni            129     -0.03773              0.15735             -0.11093         *
 * Ni            130      0.04673             -0.06480              0.00550         *
 * Ni            131      0.03303              0.00524              0.09912         *
 * Ni            132      0.09154             -0.02326              0.04566         *
 * Ni            133      0.12268             -0.12493             -0.15476         *
 * Ni            134     -0.07717              0.11600              0.19433         *
 * Ni            135     -0.18523              0.05405              0.09114         *
 * Ni            136     -0.18928              0.06393             -0.14007         *
 * Ni            137     -0.34782             -0.39899             -0.02337         *
 * Ni            138      0.12064              0.09018             -0.02163         *
 * Ni            139     -0.12720             -0.03060             -0.08175         *
 * Ni            140      0.12587             -0.02016             -0.00436         *
 * Ni            141     -0.13686              0.08568              0.20260         *
 * Ni            142      0.17716              0.01885             -0.11451         *
 * Ni            143      0.32859              0.19865             -0.22841         *
 * Ni            144     -0.09619             -0.05374              0.01219         *
 * Ni            145      0.17141              0.04392             -0.11166         *
 * Ni            146     -0.35552             -0.22720              0.20724         *
 * Ni            147     -0.04338             -0.07475              0.05479         *
 * Ni            148      0.22172              0.10802             -0.03242         *
 * Ni            149      0.20449             -0.06016             -0.25200         *
 * Ni            150      0.02129             -0.07392              0.23531         *
 * Ni            151     -0.31572              0.06340              0.13067         *
 * Ni            152      0.03856             -0.14261             -0.04291         *
 * Ni            153     -0.06560              0.17183             -0.22283         *
 * Ni            154      0.19369              0.21366              0.02257         *
 * Ni            155     -0.00994             -0.12795              0.07405         *
 * Ni            156     -0.04960             -0.12983             -0.28926         *
 * Ni            157      0.25156              0.05437             -0.25543         *
 * Ni            158     -0.17854              0.11423              0.24220         *
 * Ni            159     -0.15423             -0.05268              0.11379         *
 * Ni            160     -0.25261              0.16157              0.21416         *
 * Ni            161     -0.02613              0.06418              0.10996         *
 * Ni            162     -0.00915             -0.12851              0.08048         *
 * Ni            163      0.00582              0.06136              0.25392         *
 * Ni            164      0.33185             -0.09827             -0.08390         *
 * Ni            165     -0.32789              0.04496              0.17438         *
 * Ni            166     -0.10790              0.12410             -0.01548         *
 * Ni            167     -0.05722             -0.15567              0.09738         *
 * Ni            168     -0.24577              0.15742              0.24826         *
 * Ni            169     -0.02722             -0.12595             -0.05825         *
 * Ni            170      0.06686              0.28623             -0.03249         *
 * Ni            171      0.25489              0.11811              0.32575         *
 * Ni            172      0.26038             -0.14586              0.00187         *
 * Ni            173     -0.26737              0.26853             -0.07280         *
 * Ni            174     -0.06031             -0.00035              0.01755         *
 * Ni            175      0.02986             -0.07085             -0.02338         *
 * Ni            176     -0.02156             -0.06115              0.21661         *
 * Ni            177      0.05984             -0.01391             -0.17824         *
 * Ni            178      0.07316              0.08937             -0.22519         *
 * Ni            179      0.29047             -0.07715              0.06169         *
 * Ni            180     -0.07060              0.02710             -0.11773         *
 * Ni            181     -0.09803             -0.02043              0.06518         *
 * Ni            182     -0.17404             -0.17215             -0.10079         *
 * Ni            183      0.03123              0.09899              0.35231         *
 * Ni            184     -0.15324              0.15970              0.01077         *
 * Ni            185      0.11147             -0.05988              0.00771         *
 * Ni            186     -0.00375             -0.09802             -0.14020         *
 * Ni            187     -0.06959             -0.10602             -0.19159         *
 * Ni            188      0.05228              0.18261             -0.07005         *
 * Ni            189     -0.08408              0.09711              0.27957         *
 * Ni            190      0.13545             -0.01364             -0.20340         *
 * Ni            191     -0.05826              0.04073             -0.11872         *
 * Ni            192      0.09241             -0.00067             -0.13450         *
 *                                                                                  *
 ************************************************************************************
 LBFGS: finished iteration     0 with enthalpy= -2.71385139E+005 eV
  
 +-----------+-----------------+-----------------+------------+-----+ <-- LBFGS
 | Parameter |      value      |    tolerance    |    units   | OK? | <-- LBFGS
 +-----------+-----------------+-----------------+------------+-----+ <-- LBFGS
 |  dE/ion   |   0.000000E+000 |   2.000000E-005 |         eV | No  | <-- LBFGS
 |  |F|max   |   9.711264E-001 |   5.000000E-002 |       eV/A | No  | <-- LBFGS
 |  |dR|max  |   0.000000E+000 |   1.000000E-003 |          A | No  | <-- LBFGS
 +-----------+-----------------+-----------------+------------+-----+ <-- LBFGS
  

================================================================================
 Starting LBFGS iteration          1 ...
================================================================================
  
 +------------+-------------+-------------+-----------------+ <-- min LBFGS
 |    Step    |   lambda    |   F.delta'  |    enthalpy     | <-- min LBFGS
 +------------+-------------+-------------+-----------------+ <-- min LBFGS
 |  previous  |    0.000000 |    2.080348 |  -271385.139387 | <-- min LBFGS
 +------------+-------------+-------------+-----------------+ <-- min LBFGS
  

--------------------------------------------------------------------------------
 LBFGS: starting iteration         1 with trial guess (lambda=  1.000000)
--------------------------------------------------------------------------------
 
                           -------------------------------
                                     Cell Contents
                           -------------------------------
 
            xxxxxxxxxxxxxxxxxxxxxxxxxxxxxxxxxxxxxxxxxxxxxxxxxxxxxxxxxxxxxxxxx
            x  Element         Atom        Fractional coordinates of atoms  x
            x                 Number           u          v          w      x
            x---------------------------------------------------------------x
            x  Al                1         0.570688   0.307409   0.064463   x
            x  Al                2         0.818255   0.309203   0.063216   x
            x  Al                3         0.569876   0.559261   0.065836   x
            x  Al                4         0.817605   0.558236   0.063656   x
            x  Al                5         0.575304   0.809632   0.060322   x
            x  Al                6         0.819112   0.807800   0.062786   x
            x  Al                7         0.572229   0.058446   0.063461   x
            x  Al                8         0.819974   0.059145   0.062434   x
            x  Al                9         0.569601   0.305961   0.312679   x
            x  Al               10         0.817817   0.308657   0.313933   x
            x  Al               11         0.573347   0.554856   0.311884   x
            x  Al               12         0.816706   0.558097   0.313974   x
            x  Al               13         0.577381   0.814391   0.313142   x
            x  Al               14         0.819195   0.808318   0.313551   x
            x  Al               15         0.574361   0.057119   0.309355   x
            x  Al               16         0.819977   0.058971   0.313359   x
            x  Al               17         0.570256   0.306346   0.562132   x
            x  Al               18         0.817082   0.309542   0.563354   x
            x  Al               19         0.567322   0.559699   0.561504   x
            x  Al               20         0.816101   0.558298   0.563090   x
            x  Al               21         0.574650   0.809402   0.566256   x
            x  Al               22         0.818587   0.807344   0.564024   x
            x  Al               23         0.577139   0.057431   0.569296   x
            x  Al               24         0.819626   0.058860   0.564174   x
            x  Al               25         0.571620   0.308624   0.813993   x
            x  Al               26         0.817118   0.310215   0.813221   x
            x  Al               27         0.568920   0.558945   0.814878   x
            x  Al               28         0.816573   0.557896   0.813052   x
            x  Al               29         0.570683   0.808504   0.814477   x
            x  Al               30         0.819231   0.807160   0.813541   x
            x  Al               31         0.572533   0.057947   0.813107   x
            x  Al               32         0.820044   0.059084   0.813979   x
            x  Al               33         0.328691   0.182481   0.934424   x
            x  Al               34         0.056350   0.057849   0.808079   x
            x  Al               35         0.192979   0.190302   0.805075   x
            x  Al               36         0.321500   0.935468   0.939693   x
            x  Al               37         0.192681   0.929506   0.805048   x
            x  Al               38         0.318589   0.689977   0.944294   x
            x  Al               39         0.074686   0.687534   0.929665   x
            x  Al               40         0.198700   0.188617   0.572704   x
            x  Al               41         0.067234   0.805442   0.566011   x
            x  Al               42         0.326133   0.685006   0.688949   x
            x  Al               43         0.194373   0.667418   0.563659   x
            x  Al               44         0.337263   0.428709   0.680766   x
            x  Al               45         0.328531   0.555018   0.820014   x
            x  Al               46         0.192224   0.432862   0.556862   x
            x  Al               47         0.063734   0.435379   0.688535   x
            x  Al               48         0.317502   0.060373   0.312323   x
            x  Al               49         0.440417   0.057082   0.445083   x
            x  Al               50         0.185827   0.054904   0.185577   x
            x  Al               51         0.068449   0.185164   0.441739   x
            x  Al               52         0.433458   0.814675   0.439823   x
            x  Al               53         0.070870   0.945099   0.442299   x
            x  Al               54         0.201490   0.808496   0.432163   x
            x  Al               55         0.432125   0.677759   0.310307   x
            x  Al               56         0.334572   0.430829   0.439254   x
            x  Al               57         0.188481   0.425156   0.313497   x
            x  Al               58         0.187095   0.186343   0.057707   x
            x  Al               59         0.434355   0.816952   0.185474   x
            x  Al               60         0.191699   0.811547   0.187868   x
            x  Al               61         0.191590   0.426148   0.055733   x
            x  Al               62         0.193505   0.427321   0.821494   x
            x  Al               63         0.188906   0.565175   0.184528   x
            x  Ni                1         0.568085   0.431585   0.187866   x
            x  Ni                2         0.694191   0.307829   0.188618   x
            x  Ni                3         0.693657   0.433457   0.064142   x
            x  Ni                4         0.817455   0.433620   0.189090   x
            x  Ni                5         0.942307   0.309345   0.188492   x
            x  Ni                6         0.942049   0.434085   0.063299   x
            x  Ni                7         0.564554   0.687907   0.191591   x
            x  Ni                8         0.693039   0.558929   0.188584   x
            x  Ni                9         0.693547   0.683085   0.064429   x
            x  Ni               10         0.818573   0.683031   0.188586   x
            x  Ni               11         0.941986   0.558334   0.188686   x
            x  Ni               12         0.942547   0.682772   0.063185   x
            x  Ni               13         0.569285   0.932593   0.186066   x
            x  Ni               14         0.695872   0.808930   0.187463   x
            x  Ni               15         0.696461   0.934205   0.062179   x
            x  Ni               16         0.820187   0.933578   0.187591   x
            x  Ni               17         0.942750   0.807899   0.188150   x
            x  Ni               18         0.943311   0.933126   0.062725   x
            x  Ni               19         0.569018   0.182484   0.187747   x
            x  Ni               20         0.696299   0.058328   0.186928   x
            x  Ni               21         0.694845   0.183630   0.062926   x
            x  Ni               22         0.819214   0.183988   0.188062   x
            x  Ni               23         0.943228   0.058861   0.187979   x
            x  Ni               24         0.943045   0.184531   0.062953   x
            x  Ni               25         0.562048   0.432042   0.441239   x
            x  Ni               26         0.691788   0.307457   0.438028   x
            x  Ni               27         0.692025   0.431825   0.314577   x
            x  Ni               28         0.816727   0.433649   0.438716   x
            x  Ni               29         0.942225   0.309360   0.438832   x
            x  Ni               30         0.941792   0.433955   0.313813   x
            x  Ni               31         0.563837   0.688642   0.433517   x
            x  Ni               32         0.690685   0.558871   0.438134   x
            x  Ni               33         0.693681   0.683940   0.313272   x
            x  Ni               34         0.817650   0.682941   0.438635   x
            x  Ni               35         0.941829   0.558435   0.438701   x
            x  Ni               36         0.942277   0.682964   0.313709   x
            x  Ni               37         0.568175   0.934977   0.440396   x
            x  Ni               38         0.694878   0.809433   0.439113   x
            x  Ni               39         0.697441   0.934902   0.313152   x
            x  Ni               40         0.820064   0.933468   0.439061   x
            x  Ni               41         0.942696   0.807808   0.438870   x
            x  Ni               42         0.943024   0.933271   0.313438   x
            x  Ni               43         0.568975   0.177783   0.438277   x
            x  Ni               44         0.695443   0.057653   0.438958   x
            x  Ni               45         0.694963   0.182746   0.313170   x
            x  Ni               46         0.818727   0.183912   0.438657   x
            x  Ni               47         0.943237   0.058831   0.438947   x
            x  Ni               48         0.942746   0.184205   0.313541   x
            x  Ni               49         0.563658   0.433784   0.683304   x
            x  Ni               50         0.692610   0.309593   0.688195   x
            x  Ni               51         0.690932   0.433686   0.562337   x
            x  Ni               52         0.816577   0.434353   0.687931   x
            x  Ni               53         0.942348   0.309892   0.688347   x
            x  Ni               54         0.941906   0.434226   0.563477   x
            x  Ni               55         0.567441   0.684525   0.689564   x
            x  Ni               56         0.690523   0.558328   0.687814   x
            x  Ni               57         0.691776   0.682956   0.562496   x
            x  Ni               58         0.817360   0.682051   0.688194   x
            x  Ni               59         0.942029   0.558387   0.688195   x
            x  Ni               60         0.942265   0.682691   0.563630   x
            x  Ni               61         0.570523   0.932736   0.690690   x
            x  Ni               62         0.695251   0.807623   0.689947   x
            x  Ni               63         0.696966   0.933152   0.564829   x
            x  Ni               64         0.820084   0.932778   0.689386   x
            x  Ni               65         0.942848   0.807320   0.688603   x
            x  Ni               66         0.943130   0.933040   0.564039   x
            x  Ni               67         0.571317   0.182277   0.689629   x
            x  Ni               68         0.697556   0.058303   0.690556   x
            x  Ni               69         0.695483   0.183726   0.563792   x
            x  Ni               70         0.818897   0.185010   0.688977   x
            x  Ni               71         0.943143   0.058934   0.688688   x
            x  Ni               72         0.942563   0.184488   0.563814   x
            x  Ni               73         0.568024   0.433792   0.941163   x
            x  Ni               74         0.693265   0.308976   0.938855   x
            x  Ni               75         0.690453   0.434402   0.812625   x
            x  Ni               76         0.817125   0.434066   0.937985   x
            x  Ni               77         0.942568   0.309794   0.937901   x
            x  Ni               78         0.942115   0.434285   0.813048   x
            x  Ni               79         0.568204   0.684288   0.939339   x
            x  Ni               80         0.692468   0.558438   0.939288   x
            x  Ni               81         0.693187   0.682534   0.813758   x
            x  Ni               82         0.818070   0.682285   0.938423   x
            x  Ni               83         0.942237   0.558262   0.938108   x
            x  Ni               84         0.942406   0.682367   0.813185   x
            x  Ni               85         0.569617   0.934262   0.937547   x
            x  Ni               86         0.695693   0.808110   0.937584   x
            x  Ni               87         0.696000   0.933034   0.814106   x
            x  Ni               88         0.819986   0.933421   0.937908   x
            x  Ni               89         0.942920   0.807539   0.938068   x
            x  Ni               90         0.943611   0.932954   0.813393   x
[...]
            Ni 105 -- Ni 131                 0.02        -0.00          2.58832
            Ni 25  -- Ni 32                  0.03         0.00          2.58851
             Al 61 -- Ni 102                 0.16        -0.00          2.58860
            Ni 14  -- Ni 39                  0.02        -0.00          2.58862
            Ni 43  -- Ni 144                 0.01         0.00          2.58864
             Al 5  -- Ni 108                 0.16         0.00          2.58874
             Al 40 -- Ni 124                 0.20         0.00          2.58889
            Ni 114 -- Ni 140                 0.05        -0.00          2.58899
             Al 11 -- Ni 7                   0.20         0.00          2.58924
             Al 40 -- Ni 145                 0.17         0.00          2.58943
             Al 15 -- Ni 44                  0.20        -0.00          2.58948
            Ni 36  -- Ni 129                 0.11        -0.00          2.58952
            Ni 110 -- Ni 136                 0.06        -0.00          2.58962
            Ni 28  -- Ni 51                  0.04         0.00          2.58969
            Ni 142 -- Ni 143                 0.05        -0.00          2.59013
             Al 14 -- Ni 16                  0.19         0.00          2.59045
            Ni 12  -- Ni 89                  0.03        -0.00          2.59078
             Al 60 -- Ni 112                 0.17         0.00          2.59120
            Ni 130 -- Ni 131                 0.12         0.00          2.59148
            Ni 71  -- Ni 96                  0.01        -0.00          2.59179
            Ni 104 -- Ni 177                 0.05        -0.00          2.59181
             Al 48 -- Ni 141                 0.18         0.00          2.59188
            Ni 37  -- Ni 38                  0.07         0.00          2.59189
            Ni 67  -- Ni 165                 0.02         0.00          2.59203
            Ni 110 -- Ni 112                 0.05        -0.00          2.59204
            Ni 133 -- Ni 135                 0.03         0.00          2.59205
             Al 61 -- Ni 97                  0.18         0.00          2.59235
            Ni 90  -- Ni 95                  0.01        -0.00          2.59262
            Ni 128 -- Ni 144                 0.14         0.00          2.59278
            Ni 183 -- Ni 185                 0.07        -0.00          2.59330
            Ni 169 -- Ni 171                -0.00        -0.00          2.59334
             Al 40 -- Ni 163                 0.16         0.00          2.59343
            Ni 13  -- Ni 120                 0.04         0.00          2.59353
            Ni 101 -- Ni 144                 0.09        -0.00          2.59361
            Ni 174 -- Ni 182                 0.00         0.00          2.59377
            Ni 34  -- Ni 41                  0.06         0.00          2.59413
             Al 27 -- Ni 49                  0.18        -0.00          2.59508
             Al 16 -- Ni 40                  0.19        -0.00          2.59584
             Al 12 -- Ni 32                  0.20        -0.00          2.59597
             Al 49 -- Ni 139                 0.18         0.00          2.59597
            Ni 26  -- Ni 43                  0.06         0.00          2.59613
            Ni 116 -- Ni 118                 0.02        -0.00          2.59613
             Al 43 -- Ni 150                 0.18         0.00          2.59630
            Ni 145 -- Ni 170                -0.00         0.00          2.59642
            Ni 170 -- Ni 175                -0.01         0.00          2.59644
            Ni 1   -- Ni 8                   0.03        -0.00          2.59666
             Al 51 -- Ni 124                 0.19        -0.00          2.59668
            Ni 129 -- Ni 132                 0.11        -0.00          2.59690
            Ni 155 -- Ni 156                 0.06         0.00          2.59708
             Al 34 -- Ni 162                 0.16        -0.00          2.59712
             Al 63 -- Ni 97                  0.17         0.00          2.59722
            Ni 59  -- Ni 78                 -0.00        -0.00          2.59729
            Ni 41  -- Ni 66                 -0.03        -0.00          2.59740
            Ni 60  -- Ni 65                  0.01         0.00          2.59742
             Al 44 -- Ni 170                 0.16         0.00          2.59747
            Ni 151 -- Ni 174                -0.04         0.00          2.59758
            Ni 13  -- Ni 139                -0.01         0.00          2.59763
             Al 17 -- Ni 69                  0.18         0.00          2.59775
             Al 15 -- Ni 37                  0.19        -0.00          2.59806
            Ni 51  -- Ni 52                  0.03         0.00          2.59807
            Ni 138 -- Ni 139                -0.01         0.00          2.59813
             Al 41 -- Ni 129                 0.20         0.00          2.59857
            Ni 151 -- Ni 152                 0.04         0.00          2.59875
            Ni 35  -- Ni 129                 0.10         0.00          2.59905
             Al 56 -- Ni 128                 0.15         0.00          2.59941
            Ni 13  -- Ni 20                  0.06         0.00          2.59943
            Ni 111 -- Ni 186                 0.08         0.00          2.59957
             Al 56 -- Ni 135                 0.15         0.00          2.59980
            Ni 49  -- Ni 75                  0.01         0.00          2.60007
             Al 38 -- Ni 188                 0.17        -0.00          2.60052
            Ni 53  -- Ni 54                  0.00        -0.00          2.60077
            Ni 41  -- Ni 42                  0.03        -0.00          2.60140
             Al 3  -- Ni 180                 0.17        -0.00          2.60155
             Al 58 -- Ni 117                 0.15        -0.00          2.60206
             Al 60 -- Ni 113                 0.19        -0.00          2.60212
            Ni 133 -- Ni 160                -0.02         0.00          2.60243
            Ni 112 -- Ni 122                 0.11         0.00          2.60252
            Ni 68  -- Ni 69                  0.02         0.00          2.60254
             Al 50 -- Ni 142                 0.15        -0.00          2.60292
            Ni 150 -- Ni 178                 0.08         0.00          2.60297
            Ni 123 -- Ni 124                 0.02        -0.00          2.60317
            Ni 155 -- Ni 157                 0.07         0.00          2.60340
            Ni 13  -- Ni 39                  0.01         0.00          2.60348
            Ni 117 -- Ni 122                 0.03         0.00          2.60382
            Ni 99  -- Ni 169                 0.01        -0.00          2.60440
             Al 22 -- Ni 57                  0.19        -0.00          2.60451
            Ni 54  -- Ni 59                  0.00         0.00          2.60463
            Ni 138 -- Ni 159                 0.02         0.00          2.60491
            Ni 47  -- Ni 163                 0.06        -0.00          2.60496
            Ni 111 -- Ni 115                 0.04         0.00          2.60526
            Ni 25  -- Ni 27                  0.00         0.00          2.60551
            Ni 95  -- Ni 96                  0.01        -0.00          2.60627
            Ni 161 -- Ni 162                -0.01         0.00          2.60660
            Ni 55  -- Ni 181                 0.06         0.00          2.60682
            Ni 152 -- Ni 158                 0.03         0.00          2.60742
            Ni 143 -- Ni 167                 0.01         0.00          2.60773
            Ni 113 -- Ni 139                 0.01         0.00          2.60852
            Ni 53  -- Ni 78                  0.00        -0.00          2.60862
             Al 55 -- Ni 31                  0.17        -0.00          2.60869
             Al 21 -- Ni 159                 0.16         0.00          2.60897
            Ni 147 -- Ni 170                -0.02         0.00          2.60923
             Al 9  -- Ni 43                  0.19        -0.00          2.60929
             Al 9  -- Ni 144                 0.19        -0.00          2.60959
             Al 38 -- Ni 177                 0.17         0.00          2.60972
            Ni 178 -- Ni 185                 0.08        -0.00          2.61011
            Ni 173 -- Ni 192                -0.01         0.00          2.61026
            Ni 169 -- Ni 172                 0.01        -0.00          2.61047
            Ni 130 -- Ni 153                -0.01         0.00          2.61075
            Ni 129 -- Ni 130                 0.08         0.00          2.61078
             Al 34 -- Ni 122                 0.16        -0.00          2.61083
            Ni 71  -- Ni 90                  0.02        -0.00          2.61146
             Al 51 -- Ni 163                 0.16        -0.00          2.61165
            Ni 146 -- Ni 174                 0.01         0.00          2.61172
            Ni 121 -- Ni 173                 0.01        -0.00          2.61242
             Al 38 -- Ni 178                 0.17        -0.00          2.61281
             Al 11 -- Ni 107                 0.16         0.00          2.61286
             Al 17 -- Ni 43                  0.17        -0.00          2.61298
            Ni 172 -- Ni 177                -0.02        -0.00          2.61329
            Ni 117 -- Ni 191                 0.08         0.00          2.61363
             Al 58 -- Ni 122                 0.18        -0.00          2.61391
            Ni 156 -- Ni 167                 0.11         0.00          2.61415
            Ni 178 -- Ni 184                 0.03        -0.00          2.61435
            Ni 115 -- Ni 117                 0.09         0.00          2.61528
             Al 61 -- Ni 104                 0.15        -0.00          2.61572
             Al 46 -- Ni 153                 0.15        -0.00          2.61578
            Ni 168 -- Ni 177                 0.03        -0.00          2.61593
             Al 53 -- Ni 137                 0.18         0.00          2.61651
             Al 48 -- Ni 120                 0.18        -0.00          2.61689
            Ni 127 -- Ni 134                 0.02         0.00          2.61724
            Ni 65  -- Ni 66                  0.02         0.00          2.61729
            Ni 158 -- Ni 181                -0.01         0.00          2.61798
            Ni 138 -- Ni 160                 0.05         0.00          2.61803
             Al 21 -- Ni 31                  0.19         0.00          2.61866
            Ni 178 -- Ni 179                 0.06         0.00          2.61903
            Ni 152 -- Ni 160                 0.02         0.00          2.61924
             Al 40 -- Ni 143                 0.18         0.00          2.61936
            Ni 130 -- Ni 149                -0.02         0.00          2.62001
             Al 35 -- Ni 122                 0.17         0.00          2.62059
             Al 36 -- Ni 122                 0.17         0.00          2.62139
            Ni 42  -- Ni 47                 -0.01        -0.00          2.62153
            Ni 37  -- Ni 39                  0.01         0.00          2.62165
             Al 36 -- Ni 184                 0.17         0.00          2.62251
            Ni 110 -- Ni 118                 0.04        -0.00          2.62294
             Al 58 -- Ni 119                 0.16        -0.00          2.62326
            Ni 140 -- Ni 141                 0.07         0.00          2.62330
            Ni 102 -- Ni 109                -0.00        -0.00          2.62368
             Al 5  -- Ni 7                   0.19         0.00          2.62415
            Ni 159 -- Ni 160                 0.09         0.00          2.62534
            Ni 136 -- Ni 141                 0.01         0.00          2.62583
            Ni 65  -- Ni 148                 0.04         0.00          2.62645
             Al 43 -- Ni 155                 0.18        -0.00          2.62865
             Al 50 -- Ni 117                 0.14        -0.00          2.62874
             Al 47 -- Ni 150                 0.18        -0.00          2.62942
            Ni 156 -- Ni 157                 0.12        -0.00          2.62963
            Ni 102 -- Ni 108                 0.09         0.00          2.62973
             Al 44 -- Ni 175                 0.16         0.00          2.63066
            Ni 158 -- Ni 160                 0.11         0.00          2.63073
             Al 5  -- Ni 115                 0.15        -0.00          2.63089
            Ni 124 -- Ni 125                 0.03        -0.00          2.63159
            Ni 170 -- Ni 171                -0.02         0.00          2.63160
             Al 23 -- Ni 166                 0.14         0.00          2.63250
            Ni 134 -- Ni 135                 0.09         0.00          2.63427
             Al 52 -- Ni 37                  0.15         0.00          2.63459
            Ni 162 -- Ni 164                 0.01         0.00          2.63461
            Ni 154 -- Ni 155                 0.06         0.00          2.63496
            Ni 114 -- Ni 138                 0.00         0.00          2.63515
            Ni 108 -- Ni 111                 0.02         0.00          2.63515
             Al 38 -- Ni 182                 0.16        -0.00          2.63534
             Al 63 -- Ni 100                 0.16        -0.00          2.63739
             Al 52 -- Ni 31                  0.16         0.00          2.63825
             Al 39 -- Ni 178                 0.18        -0.00          2.63906
            Ni 150 -- Ni 153                -0.01         0.00          2.63932
            Ni 155 -- Ni 188                 0.03         0.00          2.63970
             Al 37 -- Ni 190                 0.15         0.00          2.64001
             Al 11 -- Ni 31                  0.17        -0.00          2.64013
            Ni 7   -- Ni 107                 0.01        -0.00          2.64054
             Al 23 -- Ni 159                 0.14         0.00          2.64135
            Ni 31  -- Ni 32                  0.05         0.00          2.64143
            Ni 156 -- Ni 162                 0.13         0.00          2.64232
            Ni 126 -- Ni 127                -0.00         0.00          2.64233
             Al 44 -- Ni 150                 0.14         0.00          2.64325
            Ni 31  -- Ni 57                  0.07         0.00          2.64359
            Ni 114 -- Ni 133                -0.03         0.00          2.64500
             Al 59 -- Ni 7                   0.15         0.00          2.64509
             Al 3  -- Ni 7                   0.18        -0.00          2.64521
             Al 48 -- Al 50                  0.25        -0.00          2.64562
             Al 46 -- Ni 147                 0.13        -0.00          2.64678
            Ni 106 -- Ni 135                 0.03        -0.00          2.64802
             Al 13 -- Ni 139                 0.16         0.00          2.64831
             Al 50 -- Al 58                  0.24        -0.00          2.65075
             Al 48 -- Al 49                  0.26         0.00          2.65094
             Al 37 -- Ni 122                 0.16         0.00          2.65227
             Al 35 -- Ni 189                 0.15         0.00          2.65389
             Al 33 -- Ni 122                 0.15         0.00          2.65598
             Al 50 -- Ni 119                 0.13        -0.00          2.65886
            Ni 7   -- Ni 8                   0.05         0.00          2.65973
             Al 35 -- Ni 190                 0.13        -0.00          2.66024
            Ni 7   -- Ni 9                   0.06         0.00          2.66351
             Al 43 -- Ni 160                 0.15        -0.00          2.66634
             Al 42 -- Al 43                  0.25         0.00          2.66878
             Al 42 -- Ni 153                 0.16         0.00          2.67116
             Al 23 -- Al 49                  0.24         0.00          2.67182
             Al 38 -- Al 45                  0.23         0.00          2.68041
            Ni 168 -- Ni 169                 0.02        -0.00          2.69000
            Ni 148 -- Ni 150                 0.07         0.00          2.69063
             Al 45 -- Al 62                  0.21        -0.00          2.69561
             Al 46 -- Al 56                  0.26         0.00          2.69611
            Ni 161 -- Ni 170                 0.02         0.00          2.70746
             Al 5  -- Al 59                  0.20         0.00          2.71310
             Al 56 -- Ni 130                 0.10         0.00          2.71524
             Al 19 -- Ni 31                  0.13        -0.00          2.71631
             Al 42 -- Al 45                  0.21         0.00          2.72008
             Al 11 -- Al 55                  0.20         0.00          2.72189
            Ni 164 -- Ni 170                 0.04         0.00          2.72295
             Al 36 -- Al 37                  0.22         0.00          2.72384
            Ni 149 -- Ni 150                 0.00         0.00          2.72543
             Al 56 -- Ni 124                 0.10         0.00          2.73320
             Al 55 -- Al 59                  0.20        -0.00          2.73508
             Al 46 -- Al 47                  0.21         0.00          2.73530
             Al 34 -- Al 35                  0.19         0.00          2.73788
             Al 33 -- Al 35                  0.21         0.00          2.73830
             Al 33 -- Al 58                  0.20        -0.00          2.74147
             Al 21 -- Al 52                  0.20         0.00          2.74436
             Al 34 -- Al 37                  0.19         0.00          2.74553
             Al 57 -- Al 63                  0.19        -0.00          2.74995
             Al 61 -- Al 63                  0.20        -0.00          2.75029
             Al 52 -- Al 55                  0.20         0.00          2.76071
             Al 47 -- Al 62                  0.18         0.00          2.76684
             Al 15 -- Al 49                  0.19         0.00          2.77149
             Al 44 -- Al 46                  0.20         0.00          2.77409
             Al 40 -- Al 51                  0.20         0.00          2.77859
             Al 53 -- Al 54                  0.18         0.00          2.77992
             Al 42 -- Ni 150                 0.11         0.00          2.78308
             Al 44 -- Al 45                  0.15         0.00          2.78519
             Al 41 -- Al 43                  0.16         0.00          2.78650
             Al 41 -- Al 53                  0.17         0.00          2.80223
             Al 43 -- Al 54                  0.16         0.00          2.80639
             Al 13 -- Al 59                  0.17         0.00          2.82979
             Al 13 -- Al 52                  0.17         0.00          2.83111
             Al 56 -- Al 57                  0.15        -0.00          2.84039
             Al 41 -- Al 54                  0.12         0.00          2.86782
             Al 13 -- Al 55                  0.08         0.00          2.95478
================================================================================
 

Writing analysis data to castep.castep_bin

Writing model to castep.check
 
 A BibTeX formatted list of references used in this run has been written to 
 castep.bib
 
Initialisation time =     13.82 s
Calculation time    =  15843.87 s
Finalisation time   =     14.04 s
Total time          =  15871.73 s
Peak Memory Use     = 2349404 kB
  
Overall parallel efficiency rating: Good (71%)                                  
  
Data was distributed by:-
G-vector (48-way); efficiency rating: Good (72%)                                
