 +-------------------------------------------------+
 |                                                 |
 |      CCC   AA    SSS  TTTTT  EEEEE  PPPP        |
 |     C     A  A  S       T    E      P   P       |
 |     C     AAAA   SS     T    EEE    PPPP        |
 |     C     A  A     S    T    E      P           |
 |      CCC  A  A  SSS     T    EEEEE  P           |
 |                                                 |
 +-------------------------------------------------+
 |                                                 |
 | Welcome to Academic Release CASTEP version 20.11|          
 | Ab Initio Total Energy Program                  |
 |                                                 |
 | Authors:                                        |
 | M. Segall, M. Probert, C. Pickard, P. Hasnip,   |
 | S. Clark, K. Refson, J. R. Yates, M. Payne      |
 |                                                 |
 | Contributors:                                   |
 | P. Lindan, P. Haynes, J. White, V. Milman,      |
 | N. Govind, M. Gibson, P. Tulip, V. Cocula,      |
 | B. Montanari, D. Quigley, M. Glover,            |
 | L. Bernasconi, A. Perlov, M. Plummer,           |
 | E. McNellis, J. Meyer, J. Gale, D. Jochym       |
 | J. Aarons, B. Walker, R. Gillen, D. Jones       |
 | T. Green, I. J. Bush, C. J. Armstrong,          |
 | E. J. Higgins, E. L. Brown, M. S. McFly,        |
 | J. Wilkins, B-C. Shih, P. J. P. Byrne,          |
 | R. J. Maurer, J. C. Womack, J. Dziedzic,        |
 | J. R. Kermode, A. Bartok-Partay                 |
 |                                                 |
 | Copyright (c) 2000 - 2020                       |
 |                                                 |
 |     Distributed under license from Cambridge    |
 |     Enterprise for academic use only.           |
 |                                                 |
 | Please cite                                     |
 |                                                 |
 |     "First principles methods using CASTEP"     |
 |                                                 |
 |         Zeitschrift fuer Kristallographie       |
 |           220(5-6) pp. 567-570 (2005)           |
 |                                                 |
 | S. J. Clark, M. D. Segall, C. J. Pickard,       |
 | P. J. Hasnip, M. J. Probert, K. Refson,         |
 | M. C. Payne                                     |
 |                                                 |
 |       in all publications arising from          |
 |              your use of CASTEP                 |
 |                                                 |
 +-------------------------------------------------+
 |                                                 |
 |              http://www.castep.org              |
 |                                                 |
 +-------------------------------------------------+
 
 
 
 Compiled for linux_x86_64_ifort on Wed, 25 Aug 2021 18:50:38 +0100
 from code version e772bf432+  HEAD  Sat Apr 3 17:41:32 2021 +0100
 Compiler: Intel Fortran 19.0.5.281; Optimisation: fast
 MATHLIBS: Intel MKL(2019.0.5) (LAPACK version 3.7.0)
 FFT Lib : mkl
 Fundamental constants values: CODATA 2014
 
 Run started: Thu, 09 Mar 2023 16:00:59 +0000
 
 Atomic calculation performed for Al: 1s2 2s2 2p6 3s2 3p1
 
 Converged in 52 iterations to an ae energy of -6606.982 eV
 
   ============================================================                
   | Pseudopotential Report - Date of generation  9-03-2023   |                
   ------------------------------------------------------------                
   | Element: Al Ionic charge:  3.00 Level of theory: RPBE    |                
   | Atomic Solver: Koelling-Harmon                           |                
   |                                                          |                
   |               Reference Electronic Structure             |                
   |         Orbital         Occupation         Energy        |                
   |            3s              2.000           -0.284        |                
   |            3p              1.000           -0.100        |                
   |                                                          |                
   |                 Pseudopotential Definition               |                
   |        Beta     l      e      Rc     scheme   norm       |                
   |          1      0   -0.284   2.192     qc      0         |                
   |          2      0    0.250   2.192     qc      0         |                
   |          3      1   -0.100   2.192     qc      0         |                
   |          4      1    0.250   2.192     qc      0         |                
   |          5      2    0.000   2.000     qc      0         |                
   |          6      2    0.250   2.000     qc      0         |                
   |         loc     3    0.000   2.192     pn      0         |                
   |                                                          |                
   | Augmentation charge Rinner = 1.398                       |                
   | Partial core correction Rc = 1.398                       |                
   ------------------------------------------------------------                
   | "3|2.2|2.2|1.4|4|5|5|30:31:32U2U2"                       |                
   ------------------------------------------------------------                
   |      Author: Chris J. Pickard, Cambridge University      |                
   ============================================================                
 
 Atomic calculation performed for Ni: 1s2 2s2 2p6 3s2 3p6 3d8 4s2
 
 Converged in 109 iterations to an ae energy of -41381.414 eV
 
   ============================================================                
   | Pseudopotential Report - Date of generation  9-03-2023   |                
   ------------------------------------------------------------                
   | Element: Ni Ionic charge: 10.00 Level of theory: RPBE    |                
   | Atomic Solver: Koelling-Harmon                           |                
   |                                                          |                
   |               Reference Electronic Structure             |                
   |         Orbital         Occupation         Energy        |                
   |            3d              8.000           -0.324        |                
   |            4s              2.000           -0.204        |                
   |                                                          |                
   |                 Pseudopotential Definition               |                
   |        Beta     l      e      Rc     scheme   norm       |                
   |          1      0   -0.204   2.401     qc      0         |                
   |          2      0    0.250   2.401     qc      0         |                
   |          3      1    0.000   2.401     qc      0         |                
   |          4      1    0.250   2.401     qc      0         |                
   |          5      2   -0.324   1.999     qc      0         |                
   |          6      2    0.250   1.999     qc      0         |                
   |         loc     3    0.000   2.401     pn      0         |                
   |                                                          |                
   | Augmentation charge Rinner = 1.001                       |                
   | Partial core correction Rc = 1.001                       |                
   ------------------------------------------------------------                
   | "3|2.4|2.4|1.0|8|9|10|40:41:32U2U2(qc=5.5)"              |                
   ------------------------------------------------------------                
   |      Author: Chris J. Pickard, Cambridge University      |                
   ============================================================                
 
 Pseudo atomic calculation performed for Al 3s2 3p1
 
 Converged in 13 iterations to a total energy of -107.6592 eV
 
 Pseudo atomic calculation performed for Ni 3d8 4s2
 
 Converged in 41 iterations to a total energy of -1369.7891 eV
 Calculation parallelised over 48 processes.
 Data is distributed by G-vector(48-way)

 ************************************ Title ************************************
 

 ***************************** General Parameters ******************************
  
 output verbosity                               : normal  (1)
 write checkpoint data to                       : castep.check
 type of calculation                            : geometry optimization
 stress calculation                             : off
 density difference calculation                 : off
 electron localisation func (ELF) calculation   : off
 Hirshfeld analysis                             : off
 molecular orbital projected DOS                : off
 deltaSCF calculation                           : off
 unlimited duration calculation
 timing information                             : on
 memory usage estimate                          : on
 write extra output files                       : on
 write final potential to formatted file        : off
 write final density to formatted file          : off
 write BibTeX reference list                    : on
 write OTFG pseudopotential files               : on
 write electrostatic potential file             : on
 write bands file                               : on
 checkpoint writing                             : both castep_bin and check files
  
 output         length unit                     : A
 output           mass unit                     : amu
 output           time unit                     : ps
 output         charge unit                     : e
 output           spin unit                     : hbar/2
 output         energy unit                     : eV
 output          force unit                     : eV/A
 output       velocity unit                     : A/ps
 output       pressure unit                     : GPa
 output     inv_length unit                     : 1/A
 output      frequency unit                     : cm-1
 output force constant unit                     : eV/A**2
 output         volume unit                     : A**3
 output   IR intensity unit                     : (D/A)**2/amu
 output         dipole unit                     : D
 output         efield unit                     : eV/A/e
 output        entropy unit                     : J/mol/K
 output    efield chi2 unit                     : pm/V
  
 wavefunctions paging                           : none
 random number generator seed                   : randomised (160059577)
 data distribution                              : optimal for this architecture
 optimization strategy                          : maximize speed(+++)

 *********************** Exchange-Correlation Parameters ***********************
  
 using functional                               : revised Perdew Burke Ernzerhof
 relativistic treatment                         : Koelling-Harmon
 DFT+D: Semi-empirical dispersion correction    : off

 ************************* Pseudopotential Parameters **************************
  
 pseudopotential representation                 : reciprocal space
 <beta|phi> representation                      : reciprocal space
 spin-orbit coupling                            : off

 **************************** Basis Set Parameters *****************************
  
 plane wave basis set cut-off                   :   900.0000   eV
 size of standard grid                          :     1.7500
 size of   fine   gmax                          :    26.8966   1/A
 finite basis set correction                    : none

 **************************** Electronic Parameters ****************************
  
 number of  electrons                           :  2046.    
 net charge of system                           :  0.000    
 treating system as non-spin-polarized
 number of bands                                :       1135

 ********************* Electronic Minimization Parameters **********************
  
 Method: Treating system as metallic with density mixing treatment of electrons,
         and number of  SD  steps               :          1
         and number of  CG  steps               :          4
  
 total energy / atom convergence tol.           : 0.1000E-05   eV
 eigen-energy convergence tolerance             : 0.2247E-06   eV
 max force / atom convergence tol.              : ignored
 convergence tolerance window                   :          3   cycles
 max. number of SCF cycles                      :        200
 number of fixed-spin iterations                :         10
 smearing scheme                                : Gaussian
 smearing width                                 : 0.2000       eV
 Fermi energy convergence tolerance             : 0.2721E-13   eV
 periodic dipole correction                     : NONE
 periodically dump wavefunctions to             : castep.wvfn
 dump wavefunctions every                       :          1   SCF cycles

 ************************** Density Mixing Parameters **************************
  
 density-mixing scheme                          : Pulay
 max. length of mixing history                  :         20
 charge density mixing amplitude                : 0.8000    
 cut-off energy for mixing                      :  900.0       eV

 *********************** Population Analysis Parameters ************************
  
 Population analysis with cutoff                :  3.000       A
 Population analysis output                     : summary and pdos components

 ********************** Geometry Optimization Parameters ***********************
  
 optimization method                            : LBFGS
 max. no. of LBFGS updates                      : unbounded
 variable cell method                           : fixed basis quality
 max. number of steps                           :         30
 estimated bulk modulus                         :  500.0       GPa
 estimated <frequency>                          :  1668.       cm-1
 geom line minimiser                            : on
 with line minimiser tolerance                  :     0.4000
 total energy convergence tolerance             : 0.2000E-04   eV/atom
        max ionic |force| tolerance             : 0.5000E-01   eV/A
 max ionic |displacement| tolerance             : 0.1000E-02   A
   max |stress component| tolerance             : 0.1000       GPa
 convergence tolerance window                   :          2   steps
 backup results every                           :          5   steps
 write geom trajectory file                     : on

 *******************************************************************************
  
 
                           -------------------------------
                                      Unit Cell
                           -------------------------------
        Real Lattice(A)                      Reciprocal Lattice(1/A)
    14.4648280     0.0000000     0.0000000        0.434376773   0.000000000   0.000000000
     0.0000000    14.4648280     0.0000000        0.000000000   0.434376773   0.000000000
     0.0000000     0.0000000    14.4648280        0.000000000   0.000000000   0.434376773
 
                       Lattice parameters(A)       Cell Angles
                    a =     14.464828          alpha =   90.000000
                    b =     14.464828          beta  =   90.000000
                    c =     14.464828          gamma =   90.000000
 
                       Current cell volume =          3026.494030       A**3
                                   density =             4.190844   AMU/A**3
                                           =             6.959059     g/cm^3
 
                           -------------------------------
                                     Cell Contents
                           -------------------------------
                         Total number of ions in cell =  255
                      Total number of species in cell =    2
                        Max number of any one species =  183
 
            xxxxxxxxxxxxxxxxxxxxxxxxxxxxxxxxxxxxxxxxxxxxxxxxxxxxxxxxxxxx
            x  Element    Atom        Fractional coordinates of atoms  x
            x            Number           u          v          w      x
            x----------------------------------------------------------x
            x  Al           1         0.942836   0.188101   0.313700   x 
            x  Al           2         0.941802   0.439918   0.313668   x 
            x  Al           3         0.946512   0.689358   0.307768   x 
            x  Al           4         0.943293   0.937362   0.312585   x 
            x  Al           5         0.941401   0.186288   0.562081   x 
            x  Al           6         0.941015   0.440698   0.561858   x 
            x  Al           7         0.948173   0.690776   0.563535   x 
            x  Al           8         0.944922   0.936430   0.559262   x 
            x  Al           9         0.943555   0.187709   0.811443   x 
            x  Al          10         0.941894   0.439593   0.809977   x 
            x  Al          11         0.945394   0.688263   0.816007   x 
            x  Al          12         0.948020   0.937586   0.818326   x 
            x  Al          13         0.944602   0.188783   0.062518   x 
            x  Al          14         0.942942   0.438719   0.063605   x 
            x  Al          15         0.943137   0.688032   0.062239   x 
            x  Al          16         0.943935   0.938335   0.061303   x 
            x  Al          17         0.700778   0.064518   0.183130   x 
            x  Al          18         0.427831   0.937381   0.058677   x 
            x  Al          19         0.563286   0.070994   0.057166   x 
            x  Al          20         0.174851   0.055424   0.431185   x 
            x  Al          21         0.193397   0.937659   0.060632   x 
            x  Al          22         0.174068   0.694612   0.061985   x 
            x  Al          23         0.314380   0.059096   0.304997   x 
            x  Al          24         0.052776   0.944896   0.184571   x 
            x  Al          25         0.694245   0.813905   0.188402   x 
            x  Al          26         0.564435   0.809663   0.055186   x 
            x  Al          27         0.310760   0.576638   0.315722   x 
            x  Al          28         0.176521   0.560535   0.188456   x 
            x  Al          29         0.698784   0.309758   0.186017   x 
            x  Al          30         0.444610   0.564012   0.183055   x 
            x  Al          31         0.310911   0.316614   0.075784   x 
            x  Al          32         0.569305   0.068164   0.822355   x 
            x  Al          33         0.060955   0.936760   0.929547   x 
            x  Al          34         0.437284   0.689347   0.814854   x 
            x  Al          35         0.308500   0.687569   0.938710   x 
            x  Al          36         0.695798   0.558311   0.944814   x 
            x  Al          37         0.564351   0.555964   0.818978   x 
            x  Al          38         0.309006   0.444847   0.933756   x 
            x  Al          39         0.071848   0.565772   0.809923   x 
            x  Al          40         0.699476   0.314425   0.938684   x 
            x  Al          41         0.689066   0.566033   0.181968   x 
            x  Al          42         0.556013   0.440115   0.679163   x 
            x  Al          43         0.553319   0.309376   0.815620   x 
            x  Al          44         0.309038   0.185671   0.934098   x 
            x  Al          45         0.064979   0.315185   0.823193   x 
            x  Al          46         0.690406   0.940116   0.561342   x 
            x  Al          47         0.811432   0.937437   0.695253   x 
            x  Al          48         0.559751   0.934635   0.433139   x 
            x  Al          49         0.440316   0.062438   0.689397   x 
            x  Al          50         0.313403   0.055104   0.557097   x 
            x  Al          51         0.803802   0.689262   0.687771   x 
            x  Al          52         0.442943   0.826638   0.690543   x 
            x  Al          53         0.572486   0.689277   0.681276   x 
            x  Al          54         0.313950   0.818096   0.561623   x 
            x  Al          55         0.695234   0.443003   0.550936   x 
            x  Al          56         0.191415   0.433925   0.555719   x 
            x  Al          57         0.320227   0.573494   0.562464   x 
            x  Al          58         0.058546   0.437074   0.680813   x 
            x  Al          59         0.696861   0.305971   0.687078   x 
            x  Al          60         0.555678   0.301976   0.552478   x 
            x  Al          61         0.189011   0.195375   0.557983   x 
            x  Al          62         0.061285   0.189437   0.688299   x 
            x  Al          63         0.559803   0.066592   0.304704   x 
            x  Al          64         0.806726   0.692747   0.437058   x 
            x  Al          65         0.563801   0.692763   0.435544   x 
            x  Al          66         0.315454   0.812622   0.304367   x 
            x  Al          67         0.180185   0.815667   0.439599   x 
            x  Al          68         0.051827   0.809610   0.311933   x 
            x  Al          69         0.556830   0.306313   0.314695   x 
            x  Al          70         0.553844   0.314135   0.064069   x 
            x  Al          71         0.694412   0.441069   0.322197   x 
            x  Al          72         0.325885   0.431792   0.423459   x 
            x  Ni           1         0.940162   0.312550   0.438199   x 
            x  Ni           2         0.939883   0.569741   0.436412   x 
            x  Ni           3         0.940072   0.810491   0.435877   x 
            x  Ni           4         0.940743   0.062069   0.437017   x 
            x  Ni           5         0.818001   0.313426   0.810752   x 
            x  Ni           6         0.937883   0.567207   0.688247   x 
            x  Ni           7         0.938505   0.813129   0.689891   x 
            x  Ni           8         0.939871   0.059287   0.688304   x 
            x  Ni           9         0.940376   0.314380   0.936266   x 
            x  Ni          10         0.939626   0.562687   0.937627   x 
            x  Ni          11         0.941640   0.812285   0.939238   x 
            x  Ni          12         0.942382   0.064022   0.937949   x 
            x  Ni          13         0.939621   0.314617   0.189207   x 
            x  Ni          14         0.940427   0.563369   0.186988   x 
            x  Ni          15         0.940856   0.813931   0.185554   x 
            x  Ni          16         0.940400   0.062485   0.187331   x 
            x  Ni          17         0.061423   0.188395   0.437180   x 
            x  Ni          18         0.061804   0.311790   0.313040   x 
            x  Ni          19         0.189671   0.312676   0.432435   x 
            x  Ni          20         0.308158   0.179655   0.433727   x 
            x  Ni          21         0.312944   0.308748   0.307930   x 
            x  Ni          22         0.185107   0.184337   0.311606   x 
            x  Ni          23         0.435744   0.305861   0.432330   x 
            x  Ni          24         0.562923   0.181701   0.433609   x 
            x  Ni          25         0.434959   0.183573   0.308028   x 
            x  Ni          26         0.687464   0.311213   0.436340   x 
            x  Ni          27         0.816039   0.185274   0.437758   x 
            x  Ni          28         0.687006   0.566991   0.434544   x 
            x  Ni          29         0.691598   0.186883   0.310918   x 
            x  Ni          30         0.062522   0.437686   0.438826   x 
            x  Ni          31         0.062629   0.564795   0.317072   x 
            x  Ni          32         0.192060   0.564183   0.439711   x 
            x  Ni          33         0.314271   0.445981   0.197724   x 
            x  Ni          34         0.187807   0.440247   0.315664   x 
            x  Ni          35         0.437205   0.567854   0.432790   x 
            x  Ni          36         0.688319   0.690407   0.559341   x 
            x  Ni          37         0.819624   0.441540   0.437502   x 
            x  Ni          38         0.815929   0.567172   0.311853   x 
            x  Ni          39         0.562495   0.563327   0.310188   x 
            x  Ni          40         0.060583   0.689060   0.439989   x 
            x  Ni          41         0.312966   0.697540   0.437451   x 
            x  Ni          42         0.183697   0.692943   0.312288   x 
            x  Ni          43         0.438406   0.815239   0.433682   x 
            x  Ni          44         0.688919   0.688736   0.309799   x 
            x  Ni          45         0.563328   0.815479   0.306391   x 
            x  Ni          46         0.687087   0.817021   0.433677   x 
            x  Ni          47         0.816384   0.568973   0.561554   x 
            x  Ni          48         0.816614   0.813422   0.311372   x 
            x  Ni          49         0.055683   0.936235   0.435926   x 
            x  Ni          50         0.057024   0.062897   0.310082   x 
            x  Ni          51         0.181714   0.933986   0.308506   x 
            x  Ni          52         0.309964   0.935171   0.430672   x 
            x  Ni          53         0.180589   0.814839   0.187317   x 
            x  Ni          54         0.310610   0.936744   0.185018   x 
            x  Ni          55         0.437049   0.058718   0.432575   x 
            x  Ni          56         0.688839   0.941316   0.308258   x 
            x  Ni          57         0.439065   0.937725   0.304824   x 
            x  Ni          58         0.687654   0.059677   0.434146   x 
            x  Ni          59         0.815379   0.936325   0.436952   x 
            x  Ni          60         0.817249   0.062279   0.312657   x 
            x  Ni          61         0.565709   0.939949   0.178107   x 
            x  Ni          62         0.062030   0.312963   0.560909   x 
            x  Ni          63         0.186085   0.314153   0.685918   x 
            x  Ni          64         0.311234   0.186503   0.684582   x 
            x  Ni          65         0.315048   0.311884   0.557999   x 
            x  Ni          66         0.438383   0.310660   0.683919   x 
            x  Ni          67         0.564002   0.187350   0.687803   x 
            x  Ni          68         0.433828   0.180929   0.560393   x 
            x  Ni          69         0.818341   0.184859   0.686801   x 
            x  Ni          70         0.814862   0.312367   0.560278   x 
            x  Ni          71         0.691109   0.185589   0.560366   x 
            x  Ni          72         0.063782   0.563211   0.560930   x 
            x  Ni          73         0.189513   0.563097   0.680903   x 
            x  Ni          74         0.314016   0.439781   0.683390   x 
            x  Ni          75         0.441774   0.567991   0.688521   x 
            x  Ni          76         0.435039   0.438390   0.557399   x 
            x  Ni          77         0.560974   0.563908   0.557675   x 
            x  Ni          78         0.557765   0.436617   0.433399   x 
            x  Ni          79         0.685137   0.558846   0.685707   x 
            x  Ni          80         0.938602   0.313592   0.685617   x 
            x  Ni          81         0.813757   0.439719   0.683610   x 
            x  Ni          82         0.062315   0.688906   0.686588   x 
            x  Ni          83         0.060590   0.814035   0.563751   x 
            x  Ni          84         0.188033   0.816295   0.684860   x 
            x  Ni          85         0.316783   0.693713   0.686944   x 
            x  Ni          86         0.188703   0.691545   0.562710   x 
            x  Ni          87         0.439217   0.940074   0.561645   x 
            x  Ni          88         0.441975   0.695784   0.563886   x 
            x  Ni          89         0.687530   0.816664   0.689737   x 
            x  Ni          90         0.815507   0.814723   0.564040   x 
            x  Ni          91         0.563912   0.818367   0.561889   x 
            x  Ni          92         0.060126   0.940941   0.687541   x 
            x  Ni          93         0.061152   0.065306   0.563373   x 
            x  Ni          94         0.186839   0.065111   0.683544   x 
            x  Ni          95         0.312713   0.940610   0.688204   x 
            x  Ni          96         0.185050   0.939101   0.560949   x 
            x  Ni          97         0.567836   0.943661   0.690444   x 
            x  Ni          98         0.563392   0.062653   0.560236   x 
            x  Ni          99         0.689307   0.064935   0.689753   x 
            x  Ni         100         0.815543   0.059050   0.562983   x 
            x  Ni         101         0.063491   0.187371   0.936985   x 
            x  Ni         102         0.193646   0.315094   0.940539   x 
            x  Ni         103         0.187732   0.187960   0.062250   x 
            x  Ni         104         0.312782   0.314114   0.810113   x 
            x  Ni         105         0.186744   0.189523   0.810748   x 
            x  Ni         106         0.435553   0.186108   0.812218   x 
            x  Ni         107         0.820068   0.188659   0.936946   x 
            x  Ni         108         0.691810   0.191436   0.814690   x 
            x  Ni         109         0.063525   0.439991   0.938237   x 
            x  Ni         110         0.184278   0.566781   0.940803   x 
            x  Ni         111         0.310659   0.565816   0.809827   x 
            x  Ni         112         0.186905   0.439218   0.809128   x 
            x  Ni         113         0.435819   0.562561   0.938139   x 
            x  Ni         114         0.436002   0.439044   0.810536   x 
            x  Ni         115         0.563084   0.432215   0.938430   x 
            x  Ni         116         0.818074   0.438463   0.936286   x 
            x  Ni         117         0.813325   0.562698   0.811660   x 
            x  Ni         118         0.687247   0.432784   0.810048   x 
            x  Ni         119         0.056295   0.689481   0.933195   x 
            x  Ni         120         0.061290   0.813654   0.807542   x 
            x  Ni         121         0.185255   0.813913   0.934934   x 
            x  Ni         122         0.314102   0.814341   0.810991   x 
            x  Ni         123         0.188404   0.690954   0.810508   x 
            x  Ni         124         0.436639   0.812449   0.937108   x 
            x  Ni         125         0.564576   0.684039   0.935908   x 
            x  Ni         126         0.563716   0.813135   0.814996   x 
            x  Ni         127         0.690072   0.812285   0.937956   x 
            x  Ni         128         0.816533   0.687382   0.936305   x 
            x  Ni         129         0.815312   0.811873   0.814279   x 
            x  Ni         130         0.687861   0.684501   0.814526   x 
            x  Ni         131         0.059375   0.064618   0.810374   x 
            x  Ni         132         0.185383   0.061997   0.935178   x 
            x  Ni         133         0.310048   0.938843   0.934715   x 
            x  Ni         134         0.311870   0.064043   0.810592   x 
            x  Ni         135         0.186351   0.938623   0.810367   x 
            x  Ni         136         0.437120   0.065159   0.938130   x 
            x  Ni         137         0.563130   0.939645   0.941738   x 
            x  Ni         138         0.440673   0.942336   0.815853   x 
            x  Ni         139         0.691626   0.066670   0.941042   x 
            x  Ni         140         0.817828   0.937890   0.936188   x 
            x  Ni         141         0.816095   0.063331   0.814719   x 
            x  Ni         142         0.689646   0.940028   0.817528   x 
            x  Ni         143         0.061495   0.186681   0.185382   x 
            x  Ni         144         0.064287   0.312156   0.060979   x 
            x  Ni         145         0.184389   0.314768   0.190461   x 
            x  Ni         146         0.308723   0.186129   0.186906   x 
            x  Ni         147         0.427930   0.315359   0.939961   x 
            x  Ni         148         0.183779   0.060608   0.186405   x 
            x  Ni         149         0.437978   0.316985   0.191758   x 
            x  Ni         150         0.566106   0.189197   0.184386   x 
            x  Ni         151         0.562839   0.195775   0.939666   x 
            x  Ni         152         0.432580   0.190556   0.062634   x 
            x  Ni         153         0.691068   0.433399   0.065226   x 
            x  Ni         154         0.820728   0.187834   0.187705   x 
            x  Ni         155         0.820532   0.313816   0.062856   x 
            x  Ni         156         0.693262   0.192142   0.061827   x 
            x  Ni         157         0.058834   0.436845   0.189781   x 
            x  Ni         158         0.051888   0.563144   0.063107   x 
            x  Ni         159         0.307881   0.686114   0.183999   x 
            x  Ni         160         0.186600   0.439802   0.065958   x 
            x  Ni         161         0.439747   0.690269   0.306929   x 
            x  Ni         162         0.567184   0.434648   0.194283   x 
            x  Ni         163         0.565276   0.559754   0.060256   x 
            x  Ni         164         0.434045   0.440036   0.064927   x 
            x  Ni         165         0.815770   0.312702   0.314904   x 
            x  Ni         166         0.817398   0.562641   0.063654   x 
            x  Ni         167         0.814708   0.439881   0.191249   x 
            x  Ni         168         0.056031   0.689303   0.187452   x 
            x  Ni         169         0.059688   0.820931   0.060735   x 
            x  Ni         170         0.309145   0.810128   0.062082   x 
            x  Ni         171         0.308171   0.564751   0.064893   x 
            x  Ni         172         0.439931   0.812208   0.180217   x 
            x  Ni         173         0.566515   0.690159   0.183254   x 
            x  Ni         174         0.437110   0.687272   0.059637   x 
            x  Ni         175         0.816651   0.689191   0.186973   x 
            x  Ni         176         0.816550   0.813646   0.061169   x 
            x  Ni         177         0.692417   0.689204   0.061030   x 
            x  Ni         178         0.061047   0.061296   0.057980   x 
            x  Ni         179         0.311168   0.064660   0.061421   x 
            x  Ni         180         0.438950   0.062305   0.180701   x 
            x  Ni         181         0.692426   0.938131   0.061044   x 
            x  Ni         182         0.818171   0.937584   0.186684   x 
            x  Ni         183         0.818715   0.063282   0.060325   x 
            xxxxxxxxxxxxxxxxxxxxxxxxxxxxxxxxxxxxxxxxxxxxxxxxxxxxxxxxxxxx
 
 
                         No user defined ionic velocities
 
                           -------------------------------
                                   Details of Species
                           -------------------------------
 
                               Mass of species in AMU
                                    Al   26.9815400
                                    Ni   58.6934000
 
                          Electric Quadrupole Moment (Barn)
                                    Al    0.1466000 Isotope 27
                                    Ni    0.1620000 Isotope 61
 
                          Files used for pseudopotentials:
                                    Al 3|2.2|2.2|1.4|4|5|5|30:31:32U2U2
                                    Ni 3|2.4|2.4|1.0|8|9|10|40:41:32U2U2(qc=5.5)
 
                           -------------------------------
                              k-Points For BZ Sampling
                           -------------------------------
                       MP grid size for SCF calculation is  1  1  1
                            with an offset of   0.000  0.000  0.000
                       Number of kpoints used =             1
 
                           -------------------------------
                               Symmetry and Constraints
                           -------------------------------
 
                      Maximum deviation from symmetry =  0.00000         ANG
 
                      Number of symmetry operations   =           1
                      Number of ionic constraints     =           3
                      Point group of crystal =     1: C1, 1, 1
                      Space group of crystal =     1: P1, P 1
 
             Set iprint > 1 for details on symmetry rotations/translations
 
                         Centre of mass is constrained
             Set iprint > 1 for details of linear ionic constraints
 
                         Number of cell constraints= 6
                         Cell constraints are:  0 0 0 0 0 0
 
                         External pressure/stress (GPa)
                          0.00000   0.00000   0.00000
                                    0.00000   0.00000
                                              0.00000
  
+---------------- MEMORY AND SCRATCH DISK ESTIMATES PER PROCESS --------------+
|                                                     Memory          Disk    |
| Baseline code, static data and system overhead      622.0 MB         0.0 MB |
| BLAS internal memory storage                          0.0 MB         0.0 MB |
| Model and support data                              703.2 MB         0.0 MB |
| Electronic energy minimisation requirements         156.3 MB         0.0 MB |
| Force calculation requirements                        5.4 MB         0.0 MB |
|                                               ----------------------------- |
| Approx. total storage required per process         1481.4 MB         0.0 MB |
|                                                                             |
| Requirements will fluctuate during execution and may exceed these estimates |
+-----------------------------------------------------------------------------+
Calculating total energy with cut-off of  900.000 eV.
------------------------------------------------------------------------ <-- SCF
SCF loop      Energy           Fermi           Energy gain       Timer   <-- SCF
                               energy          per atom          (sec)   <-- SCF
------------------------------------------------------------------------ <-- SCF
Initial  -2.08591207E+005  0.00000000E+000                        15.67  <-- SCF
      1  -2.52465235E+005  7.21672965E+000   1.72055014E+002      58.13  <-- SCF
      2  -2.59295507E+005  3.73954737E+000   2.67853815E+001      98.72  <-- SCF
      3  -2.59995515E+005  3.71770130E+000   2.74512939E+000     139.10  <-- SCF
      4  -2.60040097E+005  3.89003777E+000   1.74830917E-001     174.63  <-- SCF
      5  -2.60348996E+005  6.96884027E+000   1.21136686E+000     221.71  <-- SCF
      6  -2.60139324E+005  5.77989554E+000  -8.22242130E-001     273.97  <-- SCF
      7  -2.60024066E+005  4.78836054E+000  -4.51993405E-001     326.61  <-- SCF
      8  -2.59997467E+005  4.62036622E+000  -1.04309467E-001     372.77  <-- SCF
      9  -2.60000456E+005  4.65766093E+000   1.17234757E-002     421.24  <-- SCF
     10  -2.60010700E+005  4.69091928E+000   4.01710896E-002     467.98  <-- SCF
     11  -2.59999345E+005  4.62957646E+000  -4.45300476E-002     518.56  <-- SCF
     12  -2.59994999E+005  4.59352724E+000  -1.70435899E-002     564.29  <-- SCF
     13  -2.59994388E+005  4.58691190E+000  -2.39400427E-003     610.11  <-- SCF
     14  -2.59994478E+005  4.58427729E+000   3.52097372E-004     654.84  <-- SCF
     15  -2.59993917E+005  4.57889368E+000  -2.20004063E-003     699.87  <-- SCF
     16  -2.59993908E+005  4.58024785E+000  -3.64362185E-005     744.94  <-- SCF
     17  -2.59993898E+005  4.58466009E+000  -4.01692486E-005     790.03  <-- SCF
     18  -2.59993860E+005  4.58524478E+000  -1.48227649E-004     835.47  <-- SCF
     19  -2.59993868E+005  4.58605569E+000   3.35791225E-005     881.98  <-- SCF
     20  -2.59993866E+005  4.58652040E+000  -8.00199512E-006     926.63  <-- SCF
     21  -2.59993856E+005  4.58643569E+000  -3.95326803E-005     970.82  <-- SCF
     22  -2.59993857E+005  4.58638911E+000   1.90762297E-006    1012.54  <-- SCF
     23  -2.59993856E+005  4.58614501E+000  -1.89272954E-006    1045.20  <-- SCF
     24  -2.59993856E+005  4.58611557E+000  -2.07230605E-006    1076.57  <-- SCF
     25  -2.59993856E+005  4.58614457E+000   1.23615335E-007    1106.76  <-- SCF
     26  -2.59993856E+005  4.58619907E+000  -1.50328501E-007    1140.03  <-- SCF
------------------------------------------------------------------------ <-- SCF
 
Final energy, E             =  -259989.6643289     eV
Final free energy (E-TS)    =  -259993.8556568     eV
(energies not corrected for finite basis set)
 
NB est. 0K energy (E-0.5TS)      =  -259991.7599928     eV
 

Writing analysis data to castep.castep_bin

Writing model to castep.check
 
+---------------- MEMORY AND SCRATCH DISK ESTIMATES PER PROCESS --------------+
|                                                     Memory          Disk    |
| Model and support data                              713.2 MB         0.0 MB |
| Electronic energy minimisation requirements         156.3 MB         0.0 MB |
| Geometry minimisation requirements                  192.3 MB         0.0 MB |
|                                               ----------------------------- |
| Approx. total storage required per process         1061.8 MB         0.0 MB |
|                                                                             |
| Requirements will fluctuate during execution and may exceed these estimates |
+-----------------------------------------------------------------------------+
 
 
 ************************************** Forces **************************************
 *                                                                                  *
 *                           Cartesian components (eV/A)                            *
 * -------------------------------------------------------------------------------- *
 *                         x                    y                    z              *
 *                                                                                  *
 * Al              1     -0.43651              0.11633             -0.09976         *
 * Al              2     -0.20669             -0.08836              0.08638         *
 * Al              3     -2.23674             -1.95280              0.19514         *
 * Al              4     -2.79729              1.21760              1.03935         *
 * Al              5     -1.16105              0.03909             -0.91048         *
 * Al              6     -1.54585              0.02928             -1.33408         *
 * Al              7     -0.34677             -0.13561              0.10990         *
 * Al              8     -0.46048              0.10657              0.05450         *
 * Al              9     -2.15781             -0.61181              1.03162         *
 * Al             10     -2.35592              0.27321              0.96894         *
 * Al             11     -1.33533              0.59479             -0.28400         *
 * Al             12     -2.35302              0.02334             -1.76395         *
 * Al             13     -0.51893              0.03910             -0.03442         *
 * Al             14     -0.56659             -0.39891             -0.04339         *
 * Al             15     -0.80805              0.22567             -0.09918         *
 * Al             16     -2.79719              0.22083             -0.80614         *
 * Al             17      0.19207              0.03021              0.12126         *
 * Al             18     -0.06332              0.11138              0.06600         *
 * Al             19      0.01911             -0.07270             -0.11013         *
 * Al             20     -0.12632              0.01584             -0.15684         *
 * Al             21      0.33678              0.11494              0.06729         *
 * Al             22      0.17987             -0.03513              0.02356         *
 * Al             23      0.01671              0.04756             -0.12305         *
 * Al             24      2.81413             -0.05510              0.33751         *
 * Al             25      0.16899              0.04059              0.20854         *
 * Al             26      0.01442             -0.22037             -0.09406         *
 * Al             27     -0.01352              0.18671              0.00531         *
 * Al             28      0.07401             -0.10721             -0.03392         *
 * Al             29      0.26487             -0.24693             -0.03750         *
 * Al             30     -0.12156              0.00033             -0.03511         *
 * Al             31     -0.08714              0.06336              0.05136         *
 * Al             32      0.14128             -0.16183             -0.05377         *
 * Al             33      2.47694              0.09561              1.17615         *
 * Al             34     -0.09827             -0.05967              0.02801         *
 * Al             35     -0.02680              0.07443              0.07348         *
 * Al             36      0.13619              0.17242             -0.04383         *
 * Al             37      0.02579             -0.02315              0.03068         *
 * Al             38      0.01727              0.02476              0.00909         *
 * Al             39      0.91154              0.14140              0.55701         *
 * Al             40      0.06340             -0.10270             -0.10906         *
 * Al             41      0.10816              0.15897              0.06300         *
 * Al             42     -0.36443              0.29304              0.11595         *
 * Al             43     -0.21627             -0.10665              0.07247         *
 * Al             44      0.15416             -0.10513             -0.02093         *
 * Al             45      1.73174              0.01357              0.23595         *
 * Al             46     -0.26117             -0.06853             -0.03248         *
 * Al             47     -0.07219              0.13898              0.14485         *
 * Al             48     -0.29231              0.03976             -0.02284         *
 * Al             49     -0.04057              0.03467             -0.06772         *
 * Al             50      0.02997             -0.07348              0.12042         *
 * Al             51     -0.15165             -0.01999              0.03868         *
 * Al             52     -0.01187              0.13830             -0.07850         *
 * Al             53      0.16410             -0.07526             -0.18524         *
 * Al             54      0.13042             -0.01874              0.17672         *
 * Al             55      0.05385              0.37171             -0.24631         *
 * Al             56     -0.09097             -0.17172              0.11685         *
 * Al             57      0.14699              0.15761              0.12573         *
 * Al             58      2.01208             -0.00570              0.22836         *
 * Al             59      0.50637             -0.26783              0.04215         *
 * Al             60     -0.14227             -0.20891             -0.22403         *
 * Al             61      0.05502              0.21345              0.03392         *
 * Al             62      1.57774             -0.38486             -0.33231         *
 * Al             63     -0.01385              0.05366              0.09389         *
 * Al             64     -0.07483             -0.17705             -0.17103         *
 * Al             65     -0.13159              0.01885             -0.20726         *
 * Al             66      0.04238             -0.00286             -0.22723         *
 * Al             67      0.01907             -0.06553              0.02143         *
 * Al             68      2.99282              0.46057             -0.16754         *
 * Al             69     -0.15102              0.10091              0.19494         *
 * Al             70     -0.13168              0.15006              0.05926         *
 * Al             71     -0.15312              0.09631              0.15946         *
 * Al             72      0.15948             -0.35560             -0.13606         *
 * Ni              1     -0.19038              0.10283             -0.00966         *
 * Ni              2     -0.28995             -0.11864              0.24536         *
 * Ni              3     -0.70147             -0.20152              0.21999         *
 * Ni              4     -0.36830              0.15106              0.16431         *
 * Ni              5      0.14320              0.05429             -0.05645         *
 * Ni              6      0.24278             -0.33144              0.16167         *
 * Ni              7     -0.23084              0.02837             -0.14618         *
 * Ni              8     -0.46091              0.20853             -0.08410         *
 * Ni              9     -0.11338             -0.04025             -0.09058         *
 * Ni             10     -0.31655             -0.07726             -0.71539         *
 * Ni             11     -0.51508              0.46065             -0.38867         *
 * Ni             12     -0.38932             -0.31329             -0.26607         *
 * Ni             13     -0.11043             -0.20029             -0.05007         *
 * Ni             14     -0.42191             -0.08571              0.47962         *
 * Ni             15     -0.49003              0.60028              0.29524         *
 * Ni             16     -0.68935              0.06698             -0.33895         *
 * Ni             17      0.45607              0.05410             -0.05090         *
 * Ni             18      0.35080              0.15473              0.10393         *
 * Ni             19     -0.13238             -0.04523             -0.10012         *
 * Ni             20      0.02434              0.08113              0.17164         *
 * Ni             21     -0.30073             -0.00324              0.02589         *
 * Ni             22      0.02060              0.10100             -0.07441         *
 * Ni             23     -0.12444             -0.15969              0.13469         *
 * Ni             24      0.07128             -0.06736              0.11543         *
 * Ni             25     -0.05075              0.31517             -0.05612         *
 * Ni             26      0.21829             -0.12849              0.12902         *
 * Ni             27     -0.32918              0.16562             -0.08670         *
 * Ni             28      0.04019             -0.01369              0.21243         *
 * Ni             29      0.04978             -0.08620              0.08443         *
 * Ni             30      0.29363              0.15043             -0.27143         *
 * Ni             31      0.21011             -0.21627             -0.01508         *
 * Ni             32     -0.00369             -0.01843              0.18613         *
 * Ni             33     -0.04225              0.02274              0.06600         *
 * Ni             34      0.21084              0.01909             -0.13501         *
 * Ni             35     -0.06169             -0.32125              0.14519         *
 * Ni             36     -0.22018              0.03118              0.06030         *
 * Ni             37     -0.03138             -0.07483             -0.11670         *
 * Ni             38     -0.06966              0.00059              0.01707         *
 * Ni             39      0.24798              0.05420              0.12459         *
 * Ni             40      0.82596             -0.10498             -0.51454         *
 * Ni             41     -0.07402             -0.03337             -0.03761         *
 * Ni             42      0.09260              0.01261              0.18516         *
 * Ni             43      0.00280             -0.09655              0.05495         *
 * Ni             44     -0.18452              0.07418             -0.07779         *
 * Ni             45      0.05268             -0.14079             -0.07010         *
 * Ni             46      0.24218              0.18476              0.03783         *
 * Ni             47     -0.02365              0.12256             -0.05524         *
 * Ni             48      0.00483             -0.00210              0.14124         *
 * Ni             49      0.77875             -0.15449             -0.16245         *
 * Ni             50      0.53183              0.05036             -0.11020         *
 * Ni             51      0.14305             -0.08402              0.12781         *
 * Ni             52      0.15930              0.10996              0.15275         *
 * Ni             53     -0.00967             -0.02644             -0.28586         *
 * Ni             54      0.04631             -0.04272              0.16141         *
 * Ni             55      0.20298              0.21749             -0.01867         *
 * Ni             56      0.04096              0.07095              0.15242         *
 * Ni             57      0.24522             -0.10838             -0.05187         *
 * Ni             58      0.15841              0.05894              0.08773         *
 * Ni             59     -0.03120              0.05312             -0.25685         *
 * Ni             60     -0.05806             -0.05674              0.17844         *
 * Ni             61     -0.17687             -0.02628              0.07515         *
 * Ni             62      0.11255              0.01439             -0.17358         *
 * Ni             63      0.16923              0.06148              0.24102         *
 * Ni             64      0.10873             -0.00877              0.07938         *
 * Ni             65      0.09695              0.06323              0.09564         *
 * Ni             66     -0.07768              0.15647              0.01837         *
 * Ni             67      0.14856              0.10171             -0.16091         *
 * Ni             68     -0.01339              0.01576             -0.07786         *
 * Ni             69     -0.16057             -0.13072              0.02585         *
 * Ni             70     -0.03352             -0.07638             -0.16240         *
 * Ni             71     -0.19332             -0.13331              0.03741         *
 * Ni             72      0.23563             -0.25012              0.13999         *
 * Ni             73     -0.02493             -0.04448              0.15101         *
 * Ni             74     -0.01007             -0.09302              0.02076         *
 * Ni             75      0.13518              0.00237              0.26115         *
 * Ni             76      0.03020              0.05375             -0.06445         *
 * Ni             77      0.05821             -0.08370             -0.00434         *
 * Ni             78     -0.09746              0.16275             -0.08537         *
 * Ni             79      0.05026             -0.12467             -0.00211         *
 * Ni             80      0.25366             -0.03874              0.47001         *
 * Ni             81     -0.09185              0.07708              0.22714         *
 * Ni             82      0.67192              0.01680              0.07469         *
 * Ni             83      0.37441              0.15636              0.34195         *
 * Ni             84     -0.22600             -0.20439              0.27795         *
 * Ni             85     -0.27825              0.16611              0.09619         *
 * Ni             86     -0.04268             -0.03971             -0.04564         *
 * Ni             87     -0.00962             -0.05331             -0.04925         *
 * Ni             88     -0.10017              0.05509             -0.01175         *
 * Ni             89      0.12078              0.13345              0.04084         *
 * Ni             90     -0.21579             -0.01353             -0.03516         *
 * Ni             91      0.27945             -0.07566              0.02531         *
 * Ni             92      0.76065             -0.24853             -0.18918         *
 * Ni             93      0.36260              0.15143              0.12275         *
 * Ni             94     -0.00715              0.11051              0.21921         *
 * Ni             95     -0.21251             -0.05098              0.09998         *
 * Ni             96      0.02805              0.01655              0.11449         *
 * Ni             97     -0.11616              0.02469              0.17979         *
 * Ni             98      0.25956              0.06665             -0.08581         *
 * Ni             99      0.32009              0.14384             -0.21182         *
 * Ni            100     -0.07373             -0.03693              0.05945         *
 * Ni            101      0.38220              0.06703             -0.08385         *
 * Ni            102     -0.10753             -0.02223              0.07667         *
 * Ni            103     -0.06926              0.07480              0.02301         *
 * Ni            104     -0.14124             -0.04063             -0.27842         *
 * Ni            105      0.04607             -0.03917             -0.14928         *
 * Ni            106      0.03977              0.12597             -0.13762         *
 * Ni            107     -0.34269             -0.06201              0.13865         *
 * Ni            108     -0.00569              0.00631              0.07193         *
 * Ni            109      0.29028              0.10058             -0.16898         *
 * Ni            110     -0.07535             -0.08805              0.06229         *
 * Ni            111     -0.00822              0.07590             -0.11550         *
 * Ni            112     -0.02196             -0.04496             -0.23384         *
 * Ni            113      0.09037              0.13571              0.00920         *
 * Ni            114      0.16194             -0.07263             -0.15545         *
 * Ni            115     -0.07765              0.05783              0.13015         *
 * Ni            116     -0.07680             -0.05037              0.15344         *
 * Ni            117     -0.01966              0.01412             -0.18008         *
 * Ni            118     -0.10356              0.03084             -0.23128         *
 * Ni            119      1.02983              0.01778              0.27824         *
 * Ni            120      0.62725              0.04648              0.26652         *
 * Ni            121     -0.03862             -0.02444             -0.06294         *
 * Ni            122     -0.14102              0.11862              0.20774         *
 * Ni            123      0.14703              0.07082             -0.25882         *
 * Ni            124     -0.09236              0.19239             -0.10025         *
 * Ni            125      0.02658             -0.07483              0.05038         *
 * Ni            126     -0.08627             -0.11440             -0.29095         *
 * Ni            127      0.27189              0.04699             -0.29283         *
 * Ni            128     -0.22020              0.09155              0.20806         *
 * Ni            129     -0.14986             -0.05598              0.08520         *
 * Ni            130     -0.22978              0.14247              0.21744         *
 * Ni            131      0.89783              0.00127              0.02253         *
 * Ni            132     -0.08399             -0.02141             -0.03159         *
 * Ni            133      0.11486              0.00663             -0.30541         *
 * Ni            134     -0.32763             -0.28597              0.08055         *
 * Ni            135      0.17780              0.12005             -0.23798         *
 * Ni            136     -0.12986             -0.03056              0.01604         *
 * Ni            137      0.04304             -0.15145              0.05775         *
 * Ni            138     -0.09533              0.04229              0.18425         *
 * Ni            139      0.30006             -0.12876             -0.16297         *
 * Ni            140     -0.30400              0.05875              0.17666         *
 * Ni            141     -0.08784              0.00556             -0.03947         *
 * Ni            142     -0.13402             -0.14292              0.09314         *
 * Ni            143      0.45487              0.10488              0.24368         *
 * Ni            144      0.29660              0.17871              0.12694         *
 * Ni            145     -0.09593             -0.08008             -0.01546         *
 * Ni            146      0.23179             -0.06343             -0.00179         *
 * Ni            147     -0.10398             -0.04257             -0.03831         *
 * Ni            148     -0.02408              0.16263             -0.20997         *
 * Ni            149     -0.16429             -0.15831             -0.03635         *
 * Ni            150     -0.14912              0.01026              0.03690         *
 * Ni            151     -0.04168              0.01139              0.02865         *
 * Ni            152      0.11354              0.00313              0.15990         *
 * Ni            153     -0.01723             -0.11007             -0.11902         *
 * Ni            154     -0.18193              0.11696             -0.05032         *
 * Ni            155     -0.00352              0.06166              0.10744         *
 * Ni            156      0.05792             -0.08687             -0.09342         *
 * Ni            157      0.46899             -0.03413             -0.04150         *
 * Ni            158      1.47104              0.06439             -0.30018         *
 * Ni            159      0.03355              0.02162             -0.02769         *
 * Ni            160     -0.09675             -0.16768             -0.23285         *
 * Ni            161      0.13652             -0.02324              0.00858         *
 * Ni            162      0.30188             -0.23370             -0.09461         *
 * Ni            163     -0.12624              0.16417             -0.00082         *
 * Ni            164      0.16535             -0.02202             -0.02181         *
 * Ni            165     -0.01102              0.01244              0.08006         *
 * Ni            166      0.08934             -0.02166              0.11051         *
 * Ni            167     -0.23207             -0.06922             -0.19725         *
 * Ni            168      1.00919             -0.10190             -0.08191         *
 * Ni            169      0.48592              0.03853              0.03723         *
 * Ni            170      0.00130             -0.21122             -0.02800         *
 * Ni            171     -0.08977             -0.06480             -0.04399         *
 * Ni            172     -0.02228              0.03057              0.07467         *
 * Ni            173     -0.16417              0.04485              0.11468         *
 * Ni            174      0.11000             -0.22605              0.11612         *
 * Ni            175     -0.02134             -0.11602             -0.12898         *
 * Ni            176     -0.06351             -0.09759             -0.23966         *
 * Ni            177      0.07233              0.13901             -0.07947         *
 * Ni            178      0.72181             -0.27220              0.29270         *
 * Ni            179     -0.26049              0.11409              0.15165         *
 * Ni            180     -0.26164              0.13307             -0.07969         *
 * Ni            181      0.10189             -0.00278             -0.15399         *
 * Ni            182     -0.03503              0.02594             -0.14087         *
 * Ni            183      0.06167              0.06017             -0.18185         *
 *                                                                                  *
 ************************************************************************************
 LBFGS: finished iteration     0 with enthalpy= -2.59993856E+005 eV
  
 +-----------+-----------------+-----------------+------------+-----+ <-- LBFGS
 | Parameter |      value      |    tolerance    |    units   | OK? | <-- LBFGS
 +-----------+-----------------+-----------------+------------+-----+ <-- LBFGS
 |  dE/ion   |   0.000000E+000 |   2.000000E-005 |         eV | No  | <-- LBFGS
 |  |F|max   |   3.222980E+000 |   5.000000E-002 |       eV/A | No  | <-- LBFGS
 |  |dR|max  |   0.000000E+000 |   1.000000E-003 |          A | No  | <-- LBFGS
 +-----------+-----------------+-----------------+------------+-----+ <-- LBFGS
  

================================================================================
 Starting LBFGS iteration          1 ...
================================================================================
  
 +------------+-------------+-------------+-----------------+ <-- min LBFGS
 |    Step    |   lambda    |   F.delta'  |    enthalpy     | <-- min LBFGS
 +------------+-------------+-------------+-----------------+ <-- min LBFGS
 |  previous  |    0.000000 |    5.888193 |  -259993.855657 | <-- min LBFGS
 +------------+-------------+-------------+-----------------+ <-- min LBFGS
  

--------------------------------------------------------------------------------
 LBFGS: starting iteration         1 with trial guess (lambda=  1.000000)
--------------------------------------------------------------------------------
 
                           -------------------------------
                                     Cell Contents
                           -------------------------------
 
            xxxxxxxxxxxxxxxxxxxxxxxxxxxxxxxxxxxxxxxxxxxxxxxxxxxxxxxxxxxxxxxxx
            x  Element         Atom        Fractional coordinates of atoms  x
            x                 Number           u          v          w      x
            x---------------------------------------------------------------x
            x  Al                1         0.942776   0.188116   0.313687   x
            x  Al                2         0.941774   0.439906   0.313680   x
            x  Al                3         0.946208   0.689092   0.307794   x
            x  Al                4         0.942913   0.937528   0.312727   x
            x  Al                5         0.941243   0.186293   0.561957   x
            x  Al                6         0.940805   0.440702   0.561677   x
            x  Al                7         0.948126   0.690758   0.563550   x
            x  Al                8         0.944859   0.936444   0.559269   x
            x  Al                9         0.943262   0.187626   0.811583   x
            x  Al               10         0.941574   0.439630   0.810109   x
            x  Al               11         0.945212   0.688344   0.815968   x
            x  Al               12         0.947700   0.937590   0.818087   x
            x  Al               13         0.944531   0.188789   0.062513   x
            x  Al               14         0.942865   0.438665   0.063599   x
            x  Al               15         0.943027   0.688062   0.062226   x
            x  Al               16         0.943555   0.938365   0.061194   x
            x  Al               17         0.700804   0.064523   0.183146   x
            x  Al               18         0.427822   0.937396   0.058686   x
            x  Al               19         0.563288   0.070984   0.057151   x
            x  Al               20         0.174834   0.055426   0.431164   x
            x  Al               21         0.193443   0.937675   0.060641   x
            x  Al               22         0.174093   0.694607   0.061989   x
            x  Al               23         0.314382   0.059103   0.304980   x
            x  Al               24         0.053158   0.944888   0.184617   x
            x  Al               25         0.694268   0.813911   0.188431   x
            x  Al               26         0.564437   0.809633   0.055174   x
            x  Al               27         0.310758   0.576664   0.315723   x
            x  Al               28         0.176531   0.560521   0.188451   x
            x  Al               29         0.698820   0.309724   0.186012   x
            x  Al               30         0.444593   0.564012   0.183051   x
            x  Al               31         0.310899   0.316623   0.075791   x
            x  Al               32         0.569325   0.068142   0.822348   x
            x  Al               33         0.061291   0.936773   0.929707   x
            x  Al               34         0.437271   0.689339   0.814858   x
            x  Al               35         0.308497   0.687579   0.938720   x
            x  Al               36         0.695816   0.558334   0.944808   x
            x  Al               37         0.564354   0.555961   0.818982   x
            x  Al               38         0.309008   0.444851   0.933758   x
            x  Al               39         0.071972   0.565791   0.809999   x
            x  Al               40         0.699484   0.314411   0.938669   x
            x  Al               41         0.689081   0.566054   0.181976   x
            x  Al               42         0.555963   0.440155   0.679179   x
            x  Al               43         0.553290   0.309362   0.815629   x
            x  Al               44         0.309059   0.185656   0.934095   x
            x  Al               45         0.065215   0.315187   0.823225   x
            x  Al               46         0.690370   0.940107   0.561337   x
            x  Al               47         0.811422   0.937456   0.695273   x
            x  Al               48         0.559711   0.934640   0.433135   x
            x  Al               49         0.440311   0.062443   0.689388   x
            x  Al               50         0.313407   0.055095   0.557114   x
            x  Al               51         0.803781   0.689259   0.687776   x
            x  Al               52         0.442942   0.826657   0.690532   x
            x  Al               53         0.572508   0.689266   0.681251   x
            x  Al               54         0.313968   0.818093   0.561647   x
            x  Al               55         0.695241   0.443054   0.550902   x
            x  Al               56         0.191403   0.433901   0.555735   x
            x  Al               57         0.320247   0.573515   0.562481   x
            x  Al               58         0.058819   0.437073   0.680844   x
            x  Al               59         0.696930   0.305935   0.687084   x
            x  Al               60         0.555659   0.301947   0.552448   x
            x  Al               61         0.189018   0.195404   0.557987   x
            x  Al               62         0.061499   0.189385   0.688254   x
            x  Al               63         0.559801   0.066599   0.304717   x
            x  Al               64         0.806716   0.692723   0.437035   x
            x  Al               65         0.563783   0.692765   0.435516   x
            x  Al               66         0.315460   0.812622   0.304337   x
            x  Al               67         0.180188   0.815658   0.439601   x
            x  Al               68         0.052233   0.809673   0.311910   x
            x  Al               69         0.556809   0.306326   0.314721   x
            x  Al               70         0.553826   0.314156   0.064077   x
            x  Al               71         0.694391   0.441082   0.322218   x
            x  Al               72         0.325906   0.431744   0.423441   x
            x  Ni                1         0.940136   0.312564   0.438198   x
            x  Ni                2         0.939843   0.569725   0.436445   x
            x  Ni                3         0.939977   0.810463   0.435907   x
            x  Ni                4         0.940692   0.062090   0.437039   x
            x  Ni                5         0.818021   0.313434   0.810745   x
            x  Ni                6         0.937916   0.567162   0.688269   x
            x  Ni                7         0.938474   0.813133   0.689871   x
            x  Ni                8         0.939808   0.059316   0.688293   x
            x  Ni                9         0.940361   0.314375   0.936254   x
            x  Ni               10         0.939583   0.562677   0.937529   x
            x  Ni               11         0.941570   0.812347   0.939185   x
            x  Ni               12         0.942329   0.063979   0.937913   x
            x  Ni               13         0.939606   0.314590   0.189200   x
            x  Ni               14         0.940370   0.563357   0.187053   x
            x  Ni               15         0.940790   0.814013   0.185594   x
            x  Ni               16         0.940306   0.062494   0.187285   x
            x  Ni               17         0.061485   0.188402   0.437173   x
            x  Ni               18         0.061851   0.311811   0.313054   x
            x  Ni               19         0.189653   0.312670   0.432421   x
            x  Ni               20         0.308161   0.179666   0.433750   x
            x  Ni               21         0.312904   0.308747   0.307934   x
            x  Ni               22         0.185109   0.184351   0.311596   x
            x  Ni               23         0.435727   0.305839   0.432348   x
            x  Ni               24         0.562933   0.181692   0.433625   x
            x  Ni               25         0.434952   0.183616   0.308020   x
            x  Ni               26         0.687493   0.311196   0.436357   x
            x  Ni               27         0.815995   0.185297   0.437746   x
            x  Ni               28         0.687011   0.566989   0.434573   x
            x  Ni               29         0.691605   0.186871   0.310929   x
            x  Ni               30         0.062562   0.437707   0.438789   x
            x  Ni               31         0.062657   0.564766   0.317070   x
            x  Ni               32         0.192059   0.564181   0.439736   x
            x  Ni               33         0.314265   0.445985   0.197733   x
            x  Ni               34         0.187835   0.440250   0.315645   x
            x  Ni               35         0.437197   0.567810   0.432810   x
            x  Ni               36         0.688289   0.690411   0.559350   x
            x  Ni               37         0.819619   0.441529   0.437486   x
            x  Ni               38         0.815920   0.567172   0.311855   x
            x  Ni               39         0.562529   0.563334   0.310205   x
            x  Ni               40         0.060695   0.689046   0.439919   x
            x  Ni               41         0.312956   0.697536   0.437446   x
            x  Ni               42         0.183710   0.692945   0.312314   x
            x  Ni               43         0.438406   0.815226   0.433689   x
            x  Ni               44         0.688894   0.688746   0.309788   x
            x  Ni               45         0.563335   0.815460   0.306382   x
            x  Ni               46         0.687120   0.817046   0.433682   x
            x  Ni               47         0.816381   0.568990   0.561547   x
            x  Ni               48         0.816614   0.813422   0.311391   x
            x  Ni               49         0.055789   0.936214   0.435904   x
            x  Ni               50         0.057096   0.062904   0.310067   x
            x  Ni               51         0.181734   0.933974   0.308523   x
            x  Ni               52         0.309986   0.935186   0.430693   x
            x  Ni               53         0.180588   0.814836   0.187278   x
            x  Ni               54         0.310617   0.936738   0.185040   x
            x  Ni               55         0.437077   0.058748   0.432572   x
            x  Ni               56         0.688844   0.941326   0.308279   x
            x  Ni               57         0.439098   0.937710   0.304817   x
            x  Ni               58         0.687675   0.059685   0.434158   x
            x  Ni               59         0.815375   0.936333   0.436917   x
            x  Ni               60         0.817241   0.062271   0.312681   x
            x  Ni               61         0.565685   0.939946   0.178117   x
            x  Ni               62         0.062045   0.312965   0.560885   x
            x  Ni               63         0.186108   0.314162   0.685951   x
            x  Ni               64         0.311248   0.186502   0.684593   x
            x  Ni               65         0.315061   0.311893   0.558012   x
            x  Ni               66         0.438372   0.310681   0.683921   x
            x  Ni               67         0.564022   0.187364   0.687781   x
            x  Ni               68         0.433826   0.180931   0.560383   x
            x  Ni               69         0.818319   0.184841   0.686805   x
            x  Ni               70         0.814857   0.312357   0.560256   x
            x  Ni               71         0.691083   0.185571   0.560371   x
            x  Ni               72         0.063814   0.563177   0.560949   x
            x  Ni               73         0.189509   0.563091   0.680924   x
            x  Ni               74         0.314015   0.439768   0.683393   x
            x  Ni               75         0.441792   0.567991   0.688557   x
            x  Ni               76         0.435043   0.438398   0.557390   x
            x  Ni               77         0.560982   0.563896   0.557675   x
            x  Ni               78         0.557751   0.436639   0.433387   x
            x  Ni               79         0.685144   0.558829   0.685706   x
            x  Ni               80         0.938636   0.313587   0.685681   x
            x  Ni               81         0.813745   0.439730   0.683641   x
            x  Ni               82         0.062407   0.688908   0.686598   x
            x  Ni               83         0.060641   0.814056   0.563797   x
            x  Ni               84         0.188002   0.816267   0.684897   x
            x  Ni               85         0.316745   0.693735   0.686957   x
            x  Ni               86         0.188697   0.691539   0.562704   x
            x  Ni               87         0.439216   0.940067   0.561638   x
            x  Ni               88         0.441961   0.695791   0.563884   x
            x  Ni               89         0.687547   0.816682   0.689743   x
            x  Ni               90         0.815477   0.814721   0.564035   x
            x  Ni               91         0.563950   0.818357   0.561893   x
            x  Ni               92         0.060229   0.940907   0.687515   x
            x  Ni               93         0.061201   0.065327   0.563389   x
            x  Ni               94         0.186838   0.065126   0.683573   x
            x  Ni               95         0.312684   0.940603   0.688218   x
            x  Ni               96         0.185054   0.939103   0.560964   x
[...]
            Ni 97  -- Ni 126                 0.03        2.60010
            Ni 16  -- Ni 143                 0.03        2.60031
            Ni 14  -- Ni 31                  0.00        2.60052
            Ni 13  -- Ni 167                 0.08        2.60074
             Al 12 -- Ni 129                 0.14        2.60092
            Ni 60  -- Ni 182                -0.02        2.60124
            Ni 16  -- Ni 60                  0.04        2.60137
            Ni 154 -- Ni 156                 0.05        2.60138
            Ni 75  -- Ni 85                  0.05        2.60218
            Ni 56  -- Ni 61                  0.04        2.60235
            Ni 15  -- Ni 168                 0.02        2.60235
            Ni 146 -- Ni 149                 0.01        2.60240
             Al 67 -- Ni 52                  0.14        2.60264
            Ni 113 -- Ni 171                 0.06        2.60265
             Al 13 -- Ni 178                 0.18        2.60269
             Al 54 -- Ni 86                  0.14        2.60283
            Ni 16  -- Ni 178                -0.02        2.60286
             Al 3  -- Ni 3                   0.17        2.60286
             Al 12 -- Al 33                  0.27        2.60323
            Ni 87  -- Ni 95                 -0.07        2.60357
            Ni 20  -- Ni 25                  0.06        2.60371
            Ni 119 -- Ni 123                 0.08        2.60378
             Al 68 -- Ni 3                   0.15        2.60408
             Al 70 -- Ni 153                 0.15        2.60427
             Al 55 -- Ni 81                  0.20        2.60439
            Ni 62  -- Ni 63                 -0.07        2.60471
             Al 32 -- Ni 99                  0.18        2.60477
            Ni 29  -- Ni 154                 0.03        2.60479
            Ni 43  -- Ni 87                  0.01        2.60516
             Al 23 -- Ni 51                  0.18        2.60570
            Ni 8   -- Ni 141                -0.01        2.60579
            Ni 3   -- Ni 83                  0.01        2.60581
             Al 41 -- Ni 39                  0.14        2.60584
            Ni 7   -- Ni 92                  0.06        2.60585
             Al 56 -- Al 58                  0.26        2.60611
            Ni 1   -- Ni 27                  0.02        2.60613
             Al 23 -- Ni 22                  0.14        2.60630
            Ni 9   -- Ni 116                 0.07        2.60638
            Ni 2   -- Ni 38                  0.04        2.60644
             Al 3  -- Ni 15                  0.18        2.60659
             Al 11 -- Ni 82                  0.18        2.60687
             Al 8  -- Ni 90                  0.18        2.60708
            Ni 47  -- Ni 79                  0.03        2.60717
            Ni 124 -- Ni 174                 0.05        2.60776
             Al 41 -- Ni 153                 0.19        2.60793
            Ni 11  -- Ni 128                 0.09        2.60819
            Ni 53  -- Ni 159                 0.03        2.60851
            Ni 52  -- Ni 57                  0.03        2.60874
            Ni 5   -- Ni 116                -0.01        2.60884
            Ni 115 -- Ni 147                 0.09        2.60909
             Al 44 -- Ni 104                 0.14        2.60925
            Ni 103 -- Ni 178                 0.14        2.60927
             Al 30 -- Ni 162                 0.25        2.60933
            Ni 33  -- Ni 164                 0.04        2.60933
            Ni 87  -- Ni 97                 -0.00        2.60984
            Ni 31  -- Ni 157                -0.00        2.60989
            Ni 121 -- Ni 169                -0.02        2.61005
             Al 41 -- Ni 162                 0.16        2.61008
            Ni 166 -- Ni 177                 0.08        2.61025
            Ni 137 -- Ni 139                 0.01        2.61029
             Al 9  -- Ni 101                 0.17        2.61051
            Ni 27  -- Ni 100                 0.09        2.61052
            Ni 15  -- Ni 175                 0.08        2.61066
            Ni 73  -- Ni 123                 0.06        2.61084
             Al 36 -- Ni 130                 0.16        2.61105
             Al 1  -- Ni 16                  0.17        2.61113
             Al 47 -- Ni 7                   0.16        2.61114
             Al 15 -- Ni 14                  0.18        2.61133
            Ni 54  -- Ni 170                 0.06        2.61138
             Al 69 -- Ni 26                  0.14        2.61188
             Al 71 -- Ni 167                 0.17        2.61202
            Ni 40  -- Ni 72                  0.12        2.61221
             Al 21 -- Ni 178                 0.17        2.61229
            Ni 113 -- Ni 115                 0.11        2.61270
             Al 63 -- Ni 61                  0.18        2.61362
             Al 61 -- Al 62                  0.25        2.61375
             Al 35 -- Ni 122                 0.15        2.61375
            Ni 4   -- Ni 59                  0.01        2.61381
             Al 40 -- Ni 115                 0.15        2.61395
            Ni 110 -- Ni 119                 0.02        2.61403
             Al 72 -- Ni 19                  0.13        2.61411
            Ni 12  -- Ni 107                 0.08        2.61452
            Ni 124 -- Ni 125                 0.04        2.61468
             Al 15 -- Ni 169                 0.20        2.61468
             Al 72 -- Ni 65                  0.15        2.61485
            Ni 67  -- Ni 68                  0.04        2.61505
            Ni 2   -- Ni 30                  0.05        2.61533
             Al 3  -- Al 68                  0.25        2.61572
             Al 26 -- Ni 181                 0.15        2.61594
             Al 64 -- Ni 2                   0.15        2.61595
             Al 40 -- Ni 151                 0.15        2.61619
            Ni 182 -- Ni 183                -0.04        2.61626
             Al 53 -- Ni 126                 0.16        2.61674
             Al 21 -- Ni 169                 0.16        2.61702
            Ni 52  -- Ni 96                 -0.07        2.61705
             Al 15 -- Ni 10                  0.18        2.61755
             Al 38 -- Ni 164                 0.16        2.61788
            Ni 49  -- Ni 96                  0.05        2.61793
            Ni 63  -- Ni 65                  0.02        2.61798
             Al 22 -- Ni 159                 0.16        2.61812
            Ni 163 -- Ni 177                 0.00        2.61834
            Ni 19  -- Ni 65                 -0.04        2.61847
            Ni 110 -- Ni 111                 0.00        2.61936
             Al 48 -- Ni 98                  0.15        2.61956
             Al 22 -- Al 35                  0.26        2.61963
             Al 37 -- Al 42                  0.23        2.61964
            Ni 69  -- Ni 70                  0.03        2.62006
            Ni 54  -- Ni 179                 0.04        2.62028
            Ni 126 -- Ni 137                 0.12        2.62048
             Al 36 -- Ni 125                 0.17        2.62050
            Ni 7   -- Ni 82                  0.06        2.62050
            Ni 143 -- Ni 178                 0.09        2.62063
            Ni 24  -- Ni 68                  0.03        2.62067
             Al 27 -- Ni 34                  0.14        2.62077
            Ni 20  -- Ni 65                  0.06        2.62103
             Al 43 -- Ni 108                 0.14        2.62127
             Al 60 -- Ni 76                  0.17        2.62137
             Al 18 -- Ni 61                  0.15        2.62153
            Ni 69  -- Ni 80                  0.08        2.62153
            Ni 20  -- Ni 21                  0.08        2.62204
             Al 66 -- Ni 52                  0.17        2.62209
             Al 43 -- Ni 118                 0.14        2.62231
             Al 28 -- Ni 159                 0.15        2.62293
            Ni 72  -- Ni 82                  0.03        2.62297
             Al 9  -- Ni 80                  0.19        2.62324
             Al 69 -- Ni 29                  0.13        2.62370
            Ni 157 -- Ni 158                 0.02        2.62379
             Al 2  -- Ni 2                   0.19        2.62385
            Ni 28  -- Ni 37                  0.01        2.62399
            Ni 51  -- Ni 148                 0.06        2.62408
            Ni 69  -- Ni 108                 0.07        2.62427
             Al 14 -- Ni 167                 0.17        2.62442
             Al 25 -- Ni 61                  0.17        2.62456
            Ni 34  -- Ni 157                 0.10        2.62521
             Al 61 -- Ni 93                  0.18        2.62653
             Al 38 -- Ni 104                 0.15        2.62668
             Al 52 -- Ni 88                  0.16        2.62679
            Ni 6   -- Ni 47                  0.04        2.62720
             Al 26 -- Ni 61                  0.17        2.62815
             Al 50 -- Ni 64                  0.12        2.62837
            Ni 110 -- Ni 123                -0.02        2.62855
            Ni 24  -- Ni 25                 -0.02        2.62855
             Al 11 -- Ni 6                   0.20        2.62912
             Al 30 -- Ni 171                 0.13        2.63001
            Ni 95  -- Ni 138                -0.00        2.63033
             Al 36 -- Al 37                  0.25        2.63048
             Al 16 -- Ni 178                 0.14        2.63056
            Ni 31  -- Ni 32                  0.10        2.63057
             Al 46 -- Al 48                  0.25        2.63065
             Al 49 -- Al 50                  0.25        2.63182
             Al 62 -- Ni 62                  0.14        2.63235
             Al 20 -- Ni 20                  0.16        2.63280
            Ni 73  -- Ni 85                  0.11        2.63289
             Al 27 -- Al 72                  0.32        2.63365
            Ni 102 -- Ni 105                 0.02        2.63366
             Al 10 -- Ni 109                 0.16        2.63392
             Al 6  -- Ni 6                   0.17        2.63440
            Ni 23  -- Ni 78                  0.07        2.63623
            Ni 159 -- Ni 172                 0.05        2.63630
            Ni 26  -- Ni 37                 -0.02        2.63668
             Al 4  -- Ni 3                   0.15        2.63689
            Ni 40  -- Ni 83                 -0.02        2.63698
             Al 39 -- Ni 6                   0.15        2.63706
             Al 5  -- Ni 8                   0.18        2.63715
            Ni 91  -- Ni 97                  0.04        2.63832
            Ni 28  -- Ni 47                 -0.02        2.63842
            Ni 36  -- Ni 89                 -0.02        2.63859
             Al 11 -- Ni 117                 0.15        2.63923
            Ni 19  -- Ni 62                 -0.01        2.63934
            Ni 32  -- Ni 42                  0.09        2.63989
            Ni 74  -- Ni 75                  0.06        2.63991
             Al 15 -- Ni 15                  0.18        2.63994
            Ni 133 -- Ni 179                -0.03        2.64108
            Ni 3   -- Ni 59                  0.03        2.64110
            Ni 89  -- Ni 130                 0.03        2.64150
            Ni 119 -- Ni 169                 0.07        2.64151
             Al 19 -- Ni 181                 0.13        2.64172
             Al 14 -- Ni 10                  0.18        2.64240
            Ni 37  -- Ni 47                  0.04        2.64251
             Al 24 -- Al 68                  0.22        2.64275
            Ni 99  -- Ni 142                -0.01        2.64307
            Ni 26  -- Ni 78                 -0.10        2.64404
             Al 42 -- Ni 118                 0.16        2.64432
             Al 55 -- Ni 78                  0.15        2.64451
            Ni 110 -- Ni 112                 0.02        2.64536
             Al 63 -- Ni 58                  0.15        2.64579
            Ni 106 -- Ni 147                 0.03        2.64812
            Ni 116 -- Ni 117                 0.01        2.64895
             Al 30 -- Ni 159                 0.16        2.64903
             Al 32 -- Ni 67                  0.16        2.64963
            Ni 79  -- Ni 130                -0.02        2.65001
            Ni 102 -- Ni 112                 0.02        2.65015
             Al 48 -- Ni 58                  0.12        2.65042
            Ni 41  -- Ni 161                -0.01        2.65217
             Al 28 -- Ni 42                  0.17        2.65240
            Ni 15  -- Ni 176                 0.04        2.65526
            Ni 48  -- Ni 56                  0.08        2.65612
             Al 52 -- Ni 85                  0.13        2.65614
            Ni 80  -- Ni 81                  0.07        2.65668
            Ni 102 -- Ni 109                 0.07        2.65684
             Al 3  -- Ni 40                  0.13        2.65684
            Ni 139 -- Ni 151                -0.00        2.65753
            Ni 23  -- Ni 76                  0.01        2.65864
            Ni 36  -- Ni 79                  0.00        2.65925
             Al 20 -- Ni 52                  0.13        2.66008
            Ni 117 -- Ni 118                 0.12        2.66029
            Ni 28  -- Ni 78                  0.03        2.66230
             Al 61 -- Ni 94                  0.13        2.66231
            Ni 101 -- Ni 102                 0.06        2.66652
             Al 17 -- Ni 150                 0.14        2.66811
             Al 48 -- Al 63                  0.23        2.66920
             Al 32 -- Al 49                  0.25        2.66922
            Ni 153 -- Ni 166                 0.07        2.66957
             Al 17 -- Ni 61                  0.14        2.67158
            Ni 50  -- Ni 51                  0.03        2.67259
             Al 70 -- Ni 156                 0.12        2.67545
             Al 34 -- Al 37                  0.19        2.67682
             Al 21 -- Al 33                  0.22        2.67696
             Al 22 -- Al 28                  0.23        2.67710
             Al 5  -- Ni 80                  0.15        2.67823
            Ni 162 -- Ni 163                 0.05        2.67871
             Al 56 -- Ni 73                  0.14        2.67875
            Ni 168 -- Ni 169                 0.04        2.67896
             Al 21 -- Al 24                  0.22        2.67929
            Ni 35  -- Ni 88                  0.02        2.67970
            Ni 133 -- Ni 170                -0.02        2.67990
            Ni 33  -- Ni 145                 0.06        2.68333
            Ni 116 -- Ni 118                 0.09        2.68661
             Al 36 -- Ni 115                 0.14        2.69011
             Al 17 -- Al 63                  0.23        2.69037
             Al 34 -- Al 52                  0.20        2.69146
             Al 51 -- Ni 7                   0.13        2.69299
             Al 3  -- Al 64                  0.22        2.69671
            Ni 33  -- Ni 160                -0.02        2.69682
             Al 45 -- Ni 80                  0.13        2.69749
             Al 27 -- Al 28                  0.18        2.69763
             Al 6  -- Al 58                  0.21        2.69909
            Ni 162 -- Ni 164                 0.04        2.70551
             Al 6  -- Ni 80                  0.14        2.70586
             Al 39 -- Al 58                  0.21        2.70901
             Al 17 -- Al 19                  0.22        2.71009
            Ni 70  -- Ni 80                  0.03        2.71194
             Al 45 -- Al 58                  0.21        2.71271
             Al 9  -- Al 62                  0.23        2.71499
             Al 45 -- Al 62                  0.20        2.71504
            Ni 75  -- Ni 76                  0.05        2.71531
             Al 11 -- Al 39                  0.20        2.71532
            Ni 49  -- Ni 93                  0.04        2.71849
             Al 7  -- Ni 90                  0.13        2.72078
             Al 5  -- Al 62                  0.22        2.72147
             Al 25 -- Al 26                  0.21        2.72169
             Al 27 -- Al 30                  0.27        2.72271
             Al 22 -- Ni 171                 0.09        2.72476
             Al 20 -- Al 50                  0.21        2.72878
             Al 20 -- Al 23                  0.20        2.72922
             Al 18 -- Al 19                  0.19        2.72941
             Al 11 -- Al 51                  0.22        2.72987
             Al 50 -- Al 61                  0.18        2.73527
             Al 18 -- Al 26                  0.20        2.73763
             Al 16 -- Al 24                  0.18        2.73951
             Al 41 -- Al 71                  0.19        2.74231
             Al 69 -- Al 71                  0.22        2.74638
             Al 40 -- Al 43                  0.19        2.75135
             Al 36 -- Ni 118                 0.13        2.75185
             Al 42 -- Al 60                  0.24        2.75206
             Al 42 -- Al 43                  0.19        2.75233
             Al 29 -- Al 70                  0.19        2.75307
             Al 4  -- Al 24                  0.18        2.75384
             Al 72 -- Ni 32                  0.10        2.75651
             Al 52 -- Al 53                  0.18        2.75984
             Al 31 -- Al 38                  0.18        2.76300
             Al 34 -- Al 53                  0.17        2.76708
             Al 56 -- Al 72                  0.16        2.76722
             Al 20 -- Al 61                  0.17        2.77597
             Al 4  -- Al 68                  0.16        2.77867
             Al 37 -- Al 53                  0.15        2.77944
             Al 40 -- Al 70                  0.19        2.77966
             Al 29 -- Al 71                  0.16        2.78129
             Al 8  -- Al 47                  0.19        2.78168
             Al 66 -- Al 67                  0.18        2.78493
             Al 16 -- Al 33                  0.16        2.78615
             Al 56 -- Al 57                  0.18        2.78701
             Al 42 -- Al 55                  0.19        2.79037
             Al 7  -- Al 51                  0.20        2.79799
             Al 10 -- Al 58                  0.18        2.79840
             Al 51 -- Ni 6                   0.12        2.79991
             Al 7  -- Al 64                  0.17        2.80473
             Al 31 -- Al 44                  0.15        2.81369
             Al 10 -- Al 45                  0.15        2.83837
             Al 29 -- Al 69                  0.13        2.83893
             Al 9  -- Al 45                  0.13        2.84425
             Al 43 -- Al 59                  0.15        2.85194
             Al 10 -- Al 39                  0.15        2.85675
             Al 55 -- Al 59                  0.16        2.85780
             Al 59 -- Al 60                  0.16        2.89357
             Al 55 -- Al 60                  0.13        2.91375
             Al 42 -- Al 59                  0.13        2.93227
             Al 57 -- Al 72                  0.08        2.98184
======================================================================
 

Writing analysis data to castep.castep_bin

Writing model to castep.check
 
 A BibTeX formatted list of references used in this run has been written to 
 castep.bib
 
Initialisation time =     11.81 s
Calculation time    =  16274.23 s
Finalisation time   =      6.19 s
Total time          =  16292.24 s
Peak Memory Use     = 2562488 kB
  
Overall parallel efficiency rating: Good (71%)                                  
  
Data was distributed by:-
G-vector (48-way); efficiency rating: Good (71%)                                
