 +-------------------------------------------------+
 |                                                 |
 |      CCC   AA    SSS  TTTTT  EEEEE  PPPP        |
 |     C     A  A  S       T    E      P   P       |
 |     C     AAAA   SS     T    EEE    PPPP        |
 |     C     A  A     S    T    E      P           |
 |      CCC  A  A  SSS     T    EEEEE  P           |
 |                                                 |
 +-------------------------------------------------+
 |                                                 |
 | Welcome to Academic Release CASTEP version 20.11|          
 | Ab Initio Total Energy Program                  |
 |                                                 |
 | Authors:                                        |
 | M. Segall, M. Probert, C. Pickard, P. Hasnip,   |
 | S. Clark, K. Refson, J. R. Yates, M. Payne      |
 |                                                 |
 | Contributors:                                   |
 | P. Lindan, P. Haynes, J. White, V. Milman,      |
 | N. Govind, M. Gibson, P. Tulip, V. Cocula,      |
 | B. Montanari, D. Quigley, M. Glover,            |
 | L. Bernasconi, A. Perlov, M. Plummer,           |
 | E. McNellis, J. Meyer, J. Gale, D. Jochym       |
 | J. Aarons, B. Walker, R. Gillen, D. Jones       |
 | T. Green, I. J. Bush, C. J. Armstrong,          |
 | E. J. Higgins, E. L. Brown, M. S. McFly,        |
 | J. Wilkins, B-C. Shih, P. J. P. Byrne,          |
 | R. J. Maurer, J. C. Womack, J. Dziedzic,        |
 | J. R. Kermode, A. Bartok-Partay                 |
 |                                                 |
 | Copyright (c) 2000 - 2020                       |
 |                                                 |
 |     Distributed under license from Cambridge    |
 |     Enterprise for academic use only.           |
 |                                                 |
 | Please cite                                     |
 |                                                 |
 |     "First principles methods using CASTEP"     |
 |                                                 |
 |         Zeitschrift fuer Kristallographie       |
 |           220(5-6) pp. 567-570 (2005)           |
 |                                                 |
 | S. J. Clark, M. D. Segall, C. J. Pickard,       |
 | P. J. Hasnip, M. J. Probert, K. Refson,         |
 | M. C. Payne                                     |
 |                                                 |
 |       in all publications arising from          |
 |              your use of CASTEP                 |
 |                                                 |
 +-------------------------------------------------+
 |                                                 |
 |              http://www.castep.org              |
 |                                                 |
 +-------------------------------------------------+
 
 
 
 Compiled for linux_x86_64_ifort on Wed, 25 Aug 2021 18:50:38 +0100
 from code version e772bf432+  HEAD  Sat Apr 3 17:41:32 2021 +0100
 Compiler: Intel Fortran 19.0.5.281; Optimisation: fast
 MATHLIBS: Intel MKL(2019.0.5) (LAPACK version 3.7.0)
 FFT Lib : mkl
 Fundamental constants values: CODATA 2014
 
 Run started: Wed, 08 Mar 2023 21:41:22 +0000
 
 Atomic calculation performed for Al: 1s2 2s2 2p6 3s2 3p1
 
 Converged in 52 iterations to an ae energy of -6606.982 eV
 
   ============================================================                
   | Pseudopotential Report - Date of generation  8-03-2023   |                
   ------------------------------------------------------------                
   | Element: Al Ionic charge:  3.00 Level of theory: RPBE    |                
   | Atomic Solver: Koelling-Harmon                           |                
   |                                                          |                
   |               Reference Electronic Structure             |                
   |         Orbital         Occupation         Energy        |                
   |            3s              2.000           -0.284        |                
   |            3p              1.000           -0.100        |                
   |                                                          |                
   |                 Pseudopotential Definition               |                
   |        Beta     l      e      Rc     scheme   norm       |                
   |          1      0   -0.284   2.192     qc      0         |                
   |          2      0    0.250   2.192     qc      0         |                
   |          3      1   -0.100   2.192     qc      0         |                
   |          4      1    0.250   2.192     qc      0         |                
   |          5      2    0.000   2.000     qc      0         |                
   |          6      2    0.250   2.000     qc      0         |                
   |         loc     3    0.000   2.192     pn      0         |                
   |                                                          |                
   | Augmentation charge Rinner = 1.398                       |                
   | Partial core correction Rc = 1.398                       |                
   ------------------------------------------------------------                
   | "3|2.2|2.2|1.4|4|5|5|30:31:32U2U2"                       |                
   ------------------------------------------------------------                
   |      Author: Chris J. Pickard, Cambridge University      |                
   ============================================================                
 
 Atomic calculation performed for Ni: 1s2 2s2 2p6 3s2 3p6 3d8 4s2
 
 Converged in 109 iterations to an ae energy of -41381.414 eV
 
   ============================================================                
   | Pseudopotential Report - Date of generation  8-03-2023   |                
   ------------------------------------------------------------                
   | Element: Ni Ionic charge: 10.00 Level of theory: RPBE    |                
   | Atomic Solver: Koelling-Harmon                           |                
   |                                                          |                
   |               Reference Electronic Structure             |                
   |         Orbital         Occupation         Energy        |                
   |            3d              8.000           -0.324        |                
   |            4s              2.000           -0.204        |                
   |                                                          |                
   |                 Pseudopotential Definition               |                
   |        Beta     l      e      Rc     scheme   norm       |                
   |          1      0   -0.204   2.401     qc      0         |                
   |          2      0    0.250   2.401     qc      0         |                
   |          3      1    0.000   2.401     qc      0         |                
   |          4      1    0.250   2.401     qc      0         |                
   |          5      2   -0.324   1.999     qc      0         |                
   |          6      2    0.250   1.999     qc      0         |                
   |         loc     3    0.000   2.401     pn      0         |                
   |                                                          |                
   | Augmentation charge Rinner = 1.001                       |                
   | Partial core correction Rc = 1.001                       |                
   ------------------------------------------------------------                
   | "3|2.4|2.4|1.0|8|9|10|40:41:32U2U2(qc=5.5)"              |                
   ------------------------------------------------------------                
   |      Author: Chris J. Pickard, Cambridge University      |                
   ============================================================                
 
 Pseudo atomic calculation performed for Al 3s2 3p1
 
 Converged in 13 iterations to a total energy of -107.6592 eV
 
 Pseudo atomic calculation performed for Ni 3d8 4s2
 
 Converged in 41 iterations to a total energy of -1369.7891 eV
 Calculation parallelised over 48 processes.
 Data is distributed by G-vector(48-way)

 ************************************ Title ************************************
 

 ***************************** General Parameters ******************************
  
 output verbosity                               : normal  (1)
 write checkpoint data to                       : castep.check
 type of calculation                            : geometry optimization
 stress calculation                             : off
 density difference calculation                 : off
 electron localisation func (ELF) calculation   : off
 Hirshfeld analysis                             : off
 molecular orbital projected DOS                : off
 deltaSCF calculation                           : off
 unlimited duration calculation
 timing information                             : on
 memory usage estimate                          : on
 write extra output files                       : on
 write final potential to formatted file        : off
 write final density to formatted file          : off
 write BibTeX reference list                    : on
 write OTFG pseudopotential files               : on
 write electrostatic potential file             : on
 write bands file                               : on
 checkpoint writing                             : both castep_bin and check files
  
 output         length unit                     : A
 output           mass unit                     : amu
 output           time unit                     : ps
 output         charge unit                     : e
 output           spin unit                     : hbar/2
 output         energy unit                     : eV
 output          force unit                     : eV/A
 output       velocity unit                     : A/ps
 output       pressure unit                     : GPa
 output     inv_length unit                     : 1/A
 output      frequency unit                     : cm-1
 output force constant unit                     : eV/A**2
 output         volume unit                     : A**3
 output   IR intensity unit                     : (D/A)**2/amu
 output         dipole unit                     : D
 output         efield unit                     : eV/A/e
 output        entropy unit                     : J/mol/K
 output    efield chi2 unit                     : pm/V
  
 wavefunctions paging                           : none
 random number generator seed                   : randomised (214122207)
 data distribution                              : optimal for this architecture
 optimization strategy                          : maximize speed(+++)

 *********************** Exchange-Correlation Parameters ***********************
  
 using functional                               : revised Perdew Burke Ernzerhof
 relativistic treatment                         : Koelling-Harmon
 DFT+D: Semi-empirical dispersion correction    : off

 ************************* Pseudopotential Parameters **************************
  
 pseudopotential representation                 : reciprocal space
 <beta|phi> representation                      : reciprocal space
 spin-orbit coupling                            : off

 **************************** Basis Set Parameters *****************************
  
 plane wave basis set cut-off                   :   900.0000   eV
 size of standard grid                          :     1.7500
 size of   fine   gmax                          :    26.8966   1/A
 finite basis set correction                    : none

 **************************** Electronic Parameters ****************************
  
 number of  electrons                           :  2109.    
 net charge of system                           :  0.000    
 net spin   of system                           :  1.000    
 number of  up  spins                           :  1055.    
 number of down spins                           :  1054.    
 treating system as spin-polarized
 number of bands                                :       1167

 ********************* Electronic Minimization Parameters **********************
  
 Method: Treating system as metallic with density mixing treatment of electrons,
         and number of  SD  steps               :          1
         and number of  CG  steps               :          4
  
 total energy / atom convergence tol.           : 0.1000E-05   eV
 eigen-energy convergence tolerance             : 0.2185E-06   eV
 max force / atom convergence tol.              : ignored
 convergence tolerance window                   :          3   cycles
 max. number of SCF cycles                      :        200
 number of fixed-spin iterations                :         10
 smearing scheme                                : Gaussian
 smearing width                                 : 0.2000       eV
 Fermi energy convergence tolerance             : 0.2721E-13   eV
 periodic dipole correction                     : NONE
 periodically dump wavefunctions to             : castep.wvfn
 dump wavefunctions every                       :          1   SCF cycles

 ************************** Density Mixing Parameters **************************
  
 density-mixing scheme                          : Pulay
 max. length of mixing history                  :         20
 charge density mixing amplitude                : 0.8000    
   spin density mixing amplitude                :  2.000    
 cut-off energy for mixing                      :  900.0       eV

 *********************** Population Analysis Parameters ************************
  
 Population analysis with cutoff                :  3.000       A
 Population analysis output                     : summary and pdos components

 ********************** Geometry Optimization Parameters ***********************
  
 optimization method                            : LBFGS
 max. no. of LBFGS updates                      : unbounded
 variable cell method                           : fixed basis quality
 max. number of steps                           :         30
 estimated bulk modulus                         :  500.0       GPa
 estimated <frequency>                          :  1668.       cm-1
 geom line minimiser                            : on
 with line minimiser tolerance                  :     0.4000
  with spin fully able to relax for all steps
 total energy convergence tolerance             : 0.2000E-04   eV/atom
        max ionic |force| tolerance             : 0.5000E-01   eV/A
 max ionic |displacement| tolerance             : 0.1000E-02   A
   max |stress component| tolerance             : 0.1000       GPa
 convergence tolerance window                   :          2   steps
 backup results every                           :          5   steps
 write geom trajectory file                     : on

 *******************************************************************************
  
 
                           -------------------------------
                                      Unit Cell
                           -------------------------------
        Real Lattice(A)                      Reciprocal Lattice(1/A)
    14.4648280     0.0000000     0.0000000        0.434376773   0.000000000   0.000000000
     0.0000000    14.4648280     0.0000000        0.000000000   0.434376773   0.000000000
     0.0000000     0.0000000    14.4648280        0.000000000   0.000000000   0.434376773
 
                       Lattice parameters(A)       Cell Angles
                    a =     14.464828          alpha =   90.000000
                    b =     14.464828          beta  =   90.000000
                    c =     14.464828          gamma =   90.000000
 
                       Current cell volume =          3026.494030       A**3
                                   density =             4.285146   AMU/A**3
                                           =             7.115653     g/cm^3
 
                           -------------------------------
                                     Cell Contents
                           -------------------------------
                         Total number of ions in cell =  255
                      Total number of species in cell =    2
                        Max number of any one species =  192
 
            xxxxxxxxxxxxxxxxxxxxxxxxxxxxxxxxxxxxxxxxxxxxxxxxxxxxxxxxxxxx
            x  Element    Atom        Fractional coordinates of atoms  x
            x            Number           u          v          w      x
            x----------------------------------------------------------x
            x  Al           1         0.570705   0.307412   0.064467   x 
            x  Al           2         0.818246   0.309208   0.063215   x 
            x  Al           3         0.569892   0.559266   0.065838   x 
            x  Al           4         0.817593   0.558238   0.063654   x 
            x  Al           5         0.575316   0.809633   0.060342   x 
            x  Al           6         0.819097   0.807798   0.062785   x 
            x  Al           7         0.572251   0.058444   0.063467   x 
            x  Al           8         0.819965   0.059146   0.062437   x 
            x  Al           9         0.569610   0.305959   0.312688   x 
            x  Al          10         0.817809   0.308657   0.313936   x 
            x  Al          11         0.573354   0.554875   0.311892   x 
            x  Al          12         0.816692   0.558098   0.313975   x 
            x  Al          13         0.577337   0.814382   0.313143   x 
            x  Al          14         0.819189   0.808325   0.313553   x 
            x  Al          15         0.574365   0.057120   0.309368   x 
            x  Al          16         0.819966   0.058970   0.313360   x 
            x  Al          17         0.570283   0.306334   0.562133   x 
            x  Al          18         0.817076   0.309540   0.563353   x 
            x  Al          19         0.567347   0.559716   0.561508   x 
            x  Al          20         0.816090   0.558299   0.563092   x 
            x  Al          21         0.574656   0.809403   0.566239   x 
            x  Al          22         0.818573   0.807349   0.564022   x 
            x  Al          23         0.577136   0.057431   0.569280   x 
            x  Al          24         0.819624   0.058860   0.564173   x 
            x  Al          25         0.571633   0.308630   0.813987   x 
            x  Al          26         0.817116   0.310220   0.813218   x 
            x  Al          27         0.568937   0.558950   0.814872   x 
            x  Al          28         0.816562   0.557894   0.813049   x 
            x  Al          29         0.570705   0.808504   0.814478   x 
            x  Al          30         0.819224   0.807162   0.813539   x 
            x  Al          31         0.572556   0.057945   0.813105   x 
            x  Al          32         0.820033   0.059090   0.813975   x 
            x  Al          33         0.328677   0.182468   0.934417   x 
            x  Al          34         0.056308   0.057828   0.808045   x 
            x  Al          35         0.192986   0.190296   0.805098   x 
            x  Al          36         0.321477   0.935464   0.939669   x 
            x  Al          37         0.192686   0.929551   0.805057   x 
            x  Al          38         0.318584   0.689975   0.944271   x 
            x  Al          39         0.074757   0.687582   0.929596   x 
            x  Al          40         0.198677   0.188647   0.572713   x 
            x  Al          41         0.067332   0.805451   0.565932   x 
            x  Al          42         0.326104   0.684974   0.688962   x 
            x  Al          43         0.194380   0.667445   0.563674   x 
            x  Al          44         0.337235   0.428730   0.680800   x 
            x  Al          45         0.328540   0.555023   0.819998   x 
            x  Al          46         0.192230   0.432846   0.556890   x 
            x  Al          47         0.063823   0.435391   0.688545   x 
            x  Al          48         0.317536   0.060381   0.312322   x 
            x  Al          49         0.440416   0.057060   0.445061   x 
            x  Al          50         0.185863   0.054898   0.185585   x 
            x  Al          51         0.068519   0.185181   0.441818   x 
            x  Al          52         0.433476   0.814667   0.439797   x 
            x  Al          53         0.070943   0.945102   0.442377   x 
            x  Al          54         0.201473   0.808505   0.432185   x 
            x  Al          55         0.432148   0.677785   0.310318   x 
            x  Al          56         0.334538   0.430832   0.439271   x 
            x  Al          57         0.188508   0.425178   0.313511   x 
            x  Al          58         0.187106   0.186341   0.057694   x 
            x  Al          59         0.434357   0.816938   0.185511   x 
            x  Al          60         0.191722   0.811548   0.187890   x 
            x  Al          61         0.191590   0.426150   0.055729   x 
            x  Al          62         0.193531   0.427328   0.821469   x 
            x  Al          63         0.188911   0.565166   0.184527   x 
            x  Ni           1         0.568086   0.431581   0.187878   x 
            x  Ni           2         0.694190   0.307833   0.188618   x 
            x  Ni           3         0.693653   0.433456   0.064140   x 
            x  Ni           4         0.817442   0.433623   0.189089   x 
            x  Ni           5         0.942282   0.309352   0.188496   x 
            x  Ni           6         0.942026   0.434081   0.063303   x 
            x  Ni           7         0.564539   0.687879   0.191553   x 
            x  Ni           8         0.693035   0.558932   0.188584   x 
            x  Ni           9         0.693542   0.683085   0.064433   x 
            x  Ni          10         0.818574   0.683031   0.188582   x 
            x  Ni          11         0.941935   0.558343   0.188692   x 
            x  Ni          12         0.942517   0.682760   0.063187   x 
            x  Ni          13         0.569273   0.932614   0.186041   x 
            x  Ni          14         0.695881   0.808933   0.187463   x 
            x  Ni          15         0.696474   0.934210   0.062175   x 
            x  Ni          16         0.820191   0.933580   0.187591   x 
            x  Ni          17         0.942727   0.807885   0.188145   x 
            x  Ni          18         0.943292   0.933129   0.062744   x 
            x  Ni          19         0.569020   0.182490   0.187738   x 
            x  Ni          20         0.696293   0.058330   0.186926   x 
            x  Ni          21         0.694845   0.183634   0.062926   x 
            x  Ni          22         0.819210   0.183991   0.188064   x 
            x  Ni          23         0.943203   0.058865   0.187982   x 
            x  Ni          24         0.943037   0.184552   0.062969   x 
            x  Ni          25         0.562017   0.432036   0.441274   x 
            x  Ni          26         0.691778   0.307450   0.438027   x 
            x  Ni          27         0.692014   0.431826   0.314584   x 
            x  Ni          28         0.816723   0.433648   0.438724   x 
            x  Ni          29         0.942211   0.309353   0.438830   x 
            x  Ni          30         0.941757   0.433965   0.313826   x 
            x  Ni          31         0.563819   0.688617   0.433554   x 
            x  Ni          32         0.690686   0.558878   0.438131   x 
            x  Ni          33         0.693689   0.683938   0.313272   x 
            x  Ni          34         0.817656   0.682953   0.438636   x 
            x  Ni          35         0.941798   0.558438   0.438700   x 
            x  Ni          36         0.942236   0.682953   0.313698   x 
            x  Ni          37         0.568149   0.934984   0.440404   x 
            x  Ni          38         0.694877   0.809440   0.439111   x 
            x  Ni          39         0.697452   0.934903   0.313147   x 
            x  Ni          40         0.820068   0.933477   0.439061   x 
            x  Ni          41         0.942643   0.807809   0.438870   x 
            x  Ni          42         0.942990   0.933265   0.313442   x 
            x  Ni          43         0.568961   0.177791   0.438274   x 
            x  Ni          44         0.695430   0.057656   0.438958   x 
            x  Ni          45         0.694966   0.182751   0.313167   x 
            x  Ni          46         0.818725   0.183904   0.438657   x 
            x  Ni          47         0.943250   0.058814   0.438929   x 
            x  Ni          48         0.942749   0.184222   0.313550   x 
            x  Ni          49         0.563624   0.433790   0.683282   x 
            x  Ni          50         0.692610   0.309596   0.688198   x 
            x  Ni          51         0.690944   0.433685   0.562339   x 
            x  Ni          52         0.816566   0.434356   0.687928   x 
            x  Ni          53         0.942359   0.309923   0.688356   x 
            x  Ni          54         0.941926   0.434235   0.563504   x 
            x  Ni          55         0.567432   0.684532   0.689585   x 
            x  Ni          56         0.690520   0.558326   0.687820   x 
            x  Ni          57         0.691777   0.682958   0.562494   x 
            x  Ni          58         0.817361   0.682051   0.688196   x 
            x  Ni          59         0.942033   0.558362   0.688192   x 
            x  Ni          60         0.942249   0.682711   0.563634   x 
            x  Ni          61         0.570510   0.932733   0.690713   x 
            x  Ni          62         0.695255   0.807630   0.689946   x 
            x  Ni          63         0.696982   0.933155   0.564835   x 
            x  Ni          64         0.820091   0.932779   0.689383   x 
            x  Ni          65         0.942846   0.807338   0.688588   x 
            x  Ni          66         0.943112   0.933038   0.564041   x 
            x  Ni          67         0.571302   0.182275   0.689647   x 
            x  Ni          68         0.697558   0.058304   0.690556   x 
            x  Ni          69         0.695488   0.183730   0.563794   x 
            x  Ni          70         0.818897   0.185014   0.688976   x 
            x  Ni          71         0.943175   0.058929   0.688752   x 
            x  Ni          72         0.942574   0.184494   0.563796   x 
            x  Ni          73         0.568011   0.433794   0.941154   x 
            x  Ni          74         0.693258   0.308977   0.938853   x 
            x  Ni          75         0.690437   0.434403   0.812618   x 
            x  Ni          76         0.817123   0.434070   0.937977   x 
            x  Ni          77         0.942556   0.309804   0.937915   x 
            x  Ni          78         0.942132   0.434285   0.813020   x 
            x  Ni          79         0.568192   0.684297   0.939323   x 
            x  Ni          80         0.692463   0.558435   0.939286   x 
            x  Ni          81         0.693187   0.682535   0.813758   x 
            x  Ni          82         0.818069   0.682288   0.938423   x 
            x  Ni          83         0.942221   0.558270   0.938121   x 
            x  Ni          84         0.942404   0.682374   0.813202   x 
            x  Ni          85         0.569601   0.934266   0.937543   x 
            x  Ni          86         0.695694   0.808113   0.937588   x 
            x  Ni          87         0.696002   0.933039   0.814109   x 
            x  Ni          88         0.819993   0.933420   0.937906   x 
            x  Ni          89         0.942901   0.807525   0.938088   x 
            x  Ni          90         0.943643   0.933003   0.813410   x 
            x  Ni          91         0.568738   0.182411   0.938496   x 
            x  Ni          92         0.695331   0.058891   0.937967   x 
            x  Ni          93         0.694898   0.184230   0.814153   x 
            x  Ni          94         0.819134   0.184666   0.938121   x 
            x  Ni          95         0.943692   0.058987   0.937930   x 
            x  Ni          96         0.943074   0.184934   0.813255   x 
            x  Ni          97         0.071318   0.430811   0.184373   x 
            x  Ni          98         0.191717   0.305950   0.185081   x 
            x  Ni          99         0.064551   0.305680   0.059089   x 
            x  Ni         100         0.312293   0.432134   0.185406   x 
            x  Ni         101         0.442916   0.305785   0.188490   x 
            x  Ni         102         0.317121   0.557910   0.062248   x 
            x  Ni         103         0.320132   0.304296   0.061910   x 
            x  Ni         104         0.065606   0.560655   0.056932   x 
            x  Ni         105         0.065440   0.687320   0.187121   x 
            x  Ni         106         0.314954   0.684746   0.183930   x 
            x  Ni         107         0.442370   0.558223   0.187178   x 
            x  Ni         108         0.444614   0.686770   0.066206   x 
            x  Ni         109         0.190064   0.686608   0.061269   x 
            x  Ni         110         0.065978   0.934451   0.186201   x 
            x  Ni         111         0.316480   0.813058   0.062788   x 
            x  Ni         112         0.189883   0.936591   0.058193   x 
            x  Ni         113         0.313682   0.938971   0.185445   x 
            x  Ni         114         0.318271   0.811198   0.310118   x 
            x  Ni         115         0.444846   0.936016   0.062485   x 
            x  Ni         116         0.065541   0.181142   0.184604   x 
            x  Ni         117         0.315616   0.061874   0.060002   x 
            x  Ni         118         0.066719   0.058575   0.056333   x 
            x  Ni         119         0.314683   0.179894   0.186199   x 
            x  Ni         120         0.443286   0.057076   0.187921   x 
            x  Ni         121         0.445098   0.181866   0.063903   x 
            x  Ni         122         0.192978   0.061178   0.928643   x 
            x  Ni         123         0.065428   0.430634   0.438187   x 
            x  Ni         124         0.194669   0.307071   0.439377   x 
            x  Ni         125         0.063971   0.304274   0.312350   x 
            x  Ni         126         0.447649   0.303075   0.436709   x 
            x  Ni         127         0.443906   0.432497   0.309817   x 
            x  Ni         128         0.319997   0.306573   0.312170   x 
            x  Ni         129         0.071868   0.683634   0.440501   x 
            x  Ni         130         0.194032   0.552353   0.434335   x 
            x  Ni         131         0.192448   0.682982   0.311580   x 
            x  Ni         132         0.066933   0.557823   0.311800   x 
            x  Ni         133         0.316428   0.680132   0.438471   x 
            x  Ni         134         0.445790   0.560130   0.434349   x 
            x  Ni         135         0.314489   0.552763   0.309642   x 
            x  Ni         136         0.066967   0.060706   0.313896   x 
            x  Ni         137         0.070336   0.813697   0.316909   x 
            x  Ni         138         0.315045   0.937897   0.440235   x 
            x  Ni         139         0.444065   0.936397   0.314237   x 
            x  Ni         140         0.191260   0.937619   0.313589   x 
            x  Ni         141         0.194722   0.063958   0.441493   x 
            x  Ni         142         0.191119   0.184135   0.311572   x 
            x  Ni         143         0.318003   0.182933   0.439745   x 
            x  Ni         144         0.443769   0.178614   0.313281   x 
            x  Ni         145         0.065328   0.309465   0.564905   x 
            x  Ni         146         0.450577   0.305307   0.686999   x 
            x  Ni         147         0.325605   0.310456   0.561709   x 
            x  Ni         148         0.067111   0.678450   0.688913   x 
            x  Ni         149         0.064714   0.555891   0.564451   x 
            x  Ni         150         0.200302   0.547766   0.692024   x 
            x  Ni         151         0.446825   0.560298   0.688539   x 
            x  Ni         152         0.445058   0.685618   0.560667   x 
            x  Ni         153         0.325759   0.552967   0.562973   x 
            x  Ni         154         0.065130   0.931760   0.686557   x 
            x  Ni         155         0.193443   0.802505   0.684663   x 
            x  Ni         156         0.191676   0.933026   0.565414   x 
            x  Ni         157         0.318344   0.931757   0.688665   x 
            x  Ni         158         0.445856   0.809515   0.686998   x 
            x  Ni         159         0.444352   0.933497   0.565326   x 
            x  Ni         160         0.316068   0.806010   0.563815   x 
            x  Ni         161         0.065589   0.186304   0.686918   x 
            x  Ni         162         0.191401   0.059269   0.691296   x 
            x  Ni         163         0.068534   0.062381   0.566299   x 
            x  Ni         164         0.320913   0.185998   0.690280   x 
            x  Ni         165         0.446301   0.057523   0.687641   x 
            x  Ni         166         0.445735   0.181000   0.564572   x 
            x  Ni         167         0.318091   0.059613   0.567999   x 
            x  Ni         168         0.066444   0.431439   0.935029   x 
            x  Ni         169         0.194919   0.302884   0.935290   x 
            x  Ni         170         0.195584   0.318216   0.687286   x 
            x  Ni         171         0.063925   0.309015   0.808691   x 
            x  Ni         172         0.320757   0.431447   0.939479   x 
            x  Ni         173         0.447878   0.307721   0.939515   x 
            x  Ni         174         0.448080   0.432537   0.814665   x 
            x  Ni         175         0.324240   0.309970   0.812607   x 
            x  Ni         176         0.067215   0.810938   0.058600   x 
            x  Ni         177         0.194461   0.558452   0.937829   x 
            x  Ni         178         0.199944   0.680080   0.810569   x 
            x  Ni         179         0.066457   0.557302   0.812440   x 
            x  Ni         180         0.442675   0.431834   0.065919   x 
            x  Ni         181         0.443715   0.684740   0.816363   x 
            x  Ni         182         0.445398   0.559967   0.943753   x 
            x  Ni         183         0.068180   0.932515   0.930559   x 
            x  Ni         184         0.194823   0.811528   0.934713   x 
            x  Ni         185         0.066733   0.807099   0.808062   x 
            x  Ni         186         0.445030   0.810626   0.940789   x 
            x  Ni         187         0.444834   0.933848   0.813073   x 
            x  Ni         188         0.321261   0.809448   0.813364   x 
            x  Ni         189         0.066440   0.183155   0.930671   x 
            x  Ni         190         0.320332   0.057861   0.811393   x 
            x  Ni         191         0.446348   0.057546   0.937919   x 
            x  Ni         192         0.447070   0.182444   0.811955   x 
            xxxxxxxxxxxxxxxxxxxxxxxxxxxxxxxxxxxxxxxxxxxxxxxxxxxxxxxxxxxx
 
 
                         No user defined ionic velocities
 
                           -------------------------------
                                   Details of Species
                           -------------------------------
 
                               Mass of species in AMU
                                    Al   26.9815400
                                    Ni   58.6934000
 
                          Electric Quadrupole Moment (Barn)
                                    Al    0.1466000 Isotope 27
                                    Ni    0.1620000 Isotope 61
 
                          Files used for pseudopotentials:
                                    Al 3|2.2|2.2|1.4|4|5|5|30:31:32U2U2
                                    Ni 3|2.4|2.4|1.0|8|9|10|40:41:32U2U2(qc=5.5)
 
                           -------------------------------
                              k-Points For BZ Sampling
                           -------------------------------
                       MP grid size for SCF calculation is  1  1  1
                            with an offset of   0.000  0.000  0.000
                       Number of kpoints used =             1
 
                           -------------------------------
                               Symmetry and Constraints
                           -------------------------------
 
                      Maximum deviation from symmetry =  0.00000         ANG
 
                      Number of symmetry operations   =           1
                      Number of ionic constraints     =           3
                      Point group of crystal =     1: C1, 1, 1
                      Space group of crystal =     1: P1, P 1
 
             Set iprint > 1 for details on symmetry rotations/translations
 
                         Centre of mass is constrained
             Set iprint > 1 for details of linear ionic constraints
 
                         Number of cell constraints= 6
                         Cell constraints are:  0 0 0 0 0 0
 
                         External pressure/stress (GPa)
                          0.00000   0.00000   0.00000
                                    0.00000   0.00000
                                              0.00000
  
+---------------- MEMORY AND SCRATCH DISK ESTIMATES PER PROCESS --------------+
|                                                     Memory          Disk    |
| Baseline code, static data and system overhead      622.0 MB         0.0 MB |
| BLAS internal memory storage                          0.0 MB         0.0 MB |
| Model and support data                              741.5 MB         0.0 MB |
| Electronic energy minimisation requirements         236.0 MB         0.0 MB |
| Force calculation requirements                        7.9 MB         0.0 MB |
|                                               ----------------------------- |
| Approx. total storage required per process         1599.5 MB         0.0 MB |
|                                                                             |
| Requirements will fluctuate during execution and may exceed these estimates |
+-----------------------------------------------------------------------------+
Calculating total energy with cut-off of  900.000 eV.
------------------------------------------------------------------------ <-- SCF
SCF loop      Energy           Fermi           Energy gain       Timer   <-- SCF
                               energy          per atom          (sec)   <-- SCF
------------------------------------------------------------------------ <-- SCF
Initial  -2.19142719E+005  0.00000000E+000                        20.58  <-- SCF
      1  -2.63697519E+005  7.12234528E+000   1.74724707E+002     106.53  <-- SCF
      2  -2.70651813E+005  3.65194259E+000   2.72717412E+001     188.06  <-- SCF
      3  -2.71370222E+005  3.53783656E+000   2.81728877E+000     270.06  <-- SCF
      4  -2.71426421E+005  3.65374430E+000   2.20388807E-001     346.20  <-- SCF
      5  -2.71711248E+005  6.62356842E+000   1.11696719E+000     440.58  <-- SCF
      6  -2.71508506E+005  5.53842454E+000  -7.95065082E-001     549.62  <-- SCF
      7  -2.71402552E+005  4.53435689E+000  -4.15505256E-001     649.18  <-- SCF
      8  -2.71386707E+005  4.41451228E+000  -6.21395983E-002     752.21  <-- SCF
      9  -2.71397897E+005  4.48658347E+000   4.38823161E-002     847.55  <-- SCF
     10  -2.71395368E+005  4.44096019E+000  -9.91556788E-003     944.53  <-- SCF
     11  -2.72247557E+005  6.18985577E+000   3.34191697E+000    1047.26  <-- SCF
     12  -2.72260075E+005  6.14619840E+000   4.90911492E-002    1132.17  <-- SCF
     13  -2.71487043E+005  4.79283302E+000  -3.03149714E+000    1262.40  <-- SCF
     14  -2.71561224E+005  4.78960374E+000   2.90904616E-001    1345.84  <-- SCF
     15  -2.71432490E+005  4.31987734E+000  -5.04839067E-001    1447.88  <-- SCF
     16  -2.71397505E+005  4.21928981E+000  -1.37197630E-001    1549.09  <-- SCF
     17  -2.71392633E+005  4.28269130E+000  -1.91036515E-002    1642.69  <-- SCF
     18  -2.71389753E+005  4.34022831E+000  -1.12969348E-002    1735.54  <-- SCF
     19  -2.71387530E+005  4.36416060E+000  -8.71447426E-003    1829.43  <-- SCF
     20  -2.71386168E+005  4.36295106E+000  -5.34147647E-003    1924.43  <-- SCF
     21  -2.71385800E+005  4.35416807E+000  -1.44545797E-003    2018.29  <-- SCF
     22  -2.71385662E+005  4.34940225E+000  -5.41177485E-004    2112.54  <-- SCF
     23  -2.71385537E+005  4.35356182E+000  -4.87978073E-004    2207.96  <-- SCF
     24  -2.71385459E+005  4.36095842E+000  -3.05784126E-004    2306.04  <-- SCF
     25  -2.71385396E+005  4.36618446E+000  -2.48090488E-004    2401.58  <-- SCF
     26  -2.71385263E+005  4.37120696E+000  -5.20363566E-004    2497.25  <-- SCF
     27  -2.71385174E+005  4.37376896E+000  -3.49090091E-004    2593.35  <-- SCF
     28  -2.71385161E+005  4.37483196E+000  -5.19147544E-005    2690.66  <-- SCF
     29  -2.71385147E+005  4.37733630E+000  -5.61939424E-005    2787.45  <-- SCF
     30  -2.71385143E+005  4.37801204E+000  -1.52647552E-005    2877.86  <-- SCF
     31  -2.71385143E+005  4.37884065E+000  -6.34550126E-007    2965.22  <-- SCF
     32  -2.71385140E+005  4.37981985E+000  -9.78279922E-006    3052.45  <-- SCF
     33  -2.71385140E+005  4.37993060E+000  -9.55397530E-007    3114.41  <-- SCF
     34  -2.71385140E+005  4.38006944E+000   5.83767529E-007    3176.62  <-- SCF
------------------------------------------------------------------------ <-- SCF
 
Integrated Spin Density     =    0.140603     hbar/2                        
Integrated |Spin Density|   =    0.222335     hbar/2                        
 
Final energy, E             =  -271380.6446291     eV
Final free energy (E-TS)    =  -271385.1400684     eV
(energies not corrected for finite basis set)
 
NB est. 0K energy (E-0.5TS)      =  -271382.8923487     eV
 

Writing analysis data to castep.castep_bin

Writing model to castep.check
 
+---------------- MEMORY AND SCRATCH DISK ESTIMATES PER PROCESS --------------+
|                                                     Memory          Disk    |
| Model and support data                              750.6 MB         0.0 MB |
| Electronic energy minimisation requirements         236.0 MB         0.0 MB |
| Geometry minimisation requirements                  309.4 MB         0.0 MB |
|                                               ----------------------------- |
| Approx. total storage required per process         1296.0 MB         0.0 MB |
|                                                                             |
| Requirements will fluctuate during execution and may exceed these estimates |
+-----------------------------------------------------------------------------+
 
 
 ************************************** Forces **************************************
 *                                                                                  *
 *                           Cartesian components (eV/A)                            *
 * -------------------------------------------------------------------------------- *
 *                         x                    y                    z              *
 *                                                                                  *
 * Al              1     -0.11930             -0.00532             -0.02756         *
 * Al              2      0.04680             -0.02491             -0.00528         *
 * Al              3     -0.10609             -0.02115              0.00823         *
 * Al              4      0.08428             -0.01030              0.00590         *
 * Al              5     -0.08393              0.00025             -0.13422         *
 * Al              6      0.12012              0.02547              0.00571         *
 * Al              7     -0.16051              0.03706             -0.02758         *
 * Al              8      0.07004              0.01680             -0.02554         *
 * Al              9     -0.08879              0.04924             -0.02208         *
 * Al             10      0.06442              0.01215             -0.02650         *
 * Al             11     -0.05700             -0.13353             -0.01537         *
 * Al             12      0.10672              0.00311             -0.01380         *
 * Al             13      0.34888              0.07395             -0.01263         *
 * Al             14      0.05172             -0.04141             -0.03516         *
 * Al             15     -0.02937              0.00878             -0.11264         *
 * Al             16      0.08185              0.02951             -0.02636         *
 * Al             17     -0.20490              0.05562              0.01215         *
 * Al             18      0.05224              0.01586             -0.00621         *
 * Al             19     -0.16331             -0.08198             -0.01296         *
 * Al             20      0.08853              0.00808             -0.01593         *
 * Al             21     -0.02835              0.02825              0.12946         *
 * Al             22      0.11366             -0.00511              0.00047         *
 * Al             23      0.01166              0.00673              0.11804         *
 * Al             24      0.02628             -0.00035             -0.01231         *
 * Al             25     -0.12409             -0.05740              0.01611         *
 * Al             26      0.00677             -0.02399              0.01280         *
 * Al             27     -0.12074             -0.00930              0.02618         *
 * Al             28      0.07231              0.02537              0.00689         *
 * Al             29     -0.15230              0.05065              0.01008         *
 * Al             30      0.05672              0.00473              0.01723         *
 * Al             31     -0.18837              0.02286              0.01397         *
 * Al             32      0.09088             -0.02639              0.03191         *
 * Al             33      0.13617              0.10194              0.12329         *
 * Al             34      0.30860              0.16276              0.29207         *
 * Al             35     -0.03591             -0.00781             -0.07493         *
 * Al             36      0.16394              0.04907              0.21438         *
 * Al             37     -0.04992             -0.29110             -0.04828         *
 * Al             38      0.04877              0.06828              0.19194         *
 * Al             39     -0.56791             -0.28662              0.53455         *
 * Al             40      0.14821             -0.17264             -0.03624         *
 * Al             41     -0.76176             -0.03303              0.59945         *
 * Al             42      0.21475              0.29846             -0.07063         *
 * Al             43     -0.07415             -0.17738             -0.05976         *
 * Al             44      0.20749             -0.15897             -0.22248         *
 * Al             45     -0.04043              0.00607              0.15179         *
 * Al             46     -0.04909              0.09166             -0.12847         *
 * Al             47     -0.62894             -0.08632              0.03426         *
 * Al             48     -0.24130             -0.06939             -0.02826         *
 * Al             49      0.01685              0.16341              0.13467         *
 * Al             50     -0.29632              0.05047             -0.04614         *
 * Al             51     -0.51978             -0.08967             -0.66851         *
 * Al             52     -0.12665              0.06372              0.20005         *
 * Al             53     -0.60639             -0.02673             -0.64707         *
 * Al             54      0.09547             -0.06304             -0.16979         *
 * Al             55     -0.18069             -0.19906             -0.03960         *
 * Al             56      0.24047              0.00528             -0.06570         *
 * Al             57     -0.20238             -0.10886             -0.11873         *
 * Al             58     -0.08668              0.03174              0.13407         *
 * Al             59     -0.00617              0.09021             -0.27429         *
 * Al             60     -0.19275             -0.03186             -0.14410         *
 * Al             61      0.01005              0.04320              0.01096         *
 * Al             62     -0.15867             -0.02005              0.26037         *
 * Al             63     -0.03852              0.11254             -0.00553         *
 * Ni              1     -0.00399              0.05040             -0.04706         *
 * Ni              2      0.00684             -0.00503              0.01446         *
 * Ni              3      0.02534              0.01923              0.01698         *
 * Ni              4      0.09624             -0.01133             -0.00186         *
 * Ni              5      0.18561             -0.03289             -0.05019         *
 * Ni              6      0.16441              0.04432             -0.05399         *
 * Ni              7      0.12046              0.20422              0.30752         *
 * Ni              8      0.02792             -0.01236              0.01563         *
 * Ni              9      0.03877              0.00388             -0.02338         *
 * Ni             10     -0.00925              0.00279              0.02363         *
 * Ni             11      0.37515             -0.05808             -0.06604         *
 * Ni             12      0.22196              0.09986             -0.03255         *
 * Ni             13      0.10052             -0.15406              0.18061         *
 * Ni             14     -0.06003             -0.01283              0.00349         *
 * Ni             15     -0.09143             -0.02475              0.03438         *
 * Ni             16     -0.02326              0.00158             -0.01444         *
 * Ni             17      0.17603              0.11608              0.01007         *
 * Ni             18      0.14770             -0.00574             -0.15227         *
 * Ni             19     -0.00140             -0.00514              0.08544         *
 * Ni             20      0.05381              0.00843              0.00568         *
 * Ni             21     -0.00886             -0.00440             -0.00962         *
 * Ni             22      0.02630              0.00559             -0.02289         *
 * Ni             23      0.20601             -0.00675             -0.04569         *
 * Ni             24      0.06272             -0.13219             -0.13584         *
 * Ni             25      0.22591              0.04947             -0.20950         *
 * Ni             26      0.07680              0.05994              0.02723         *
 * Ni             27      0.07953              0.00031             -0.03227         *
 * Ni             28      0.03289              0.01667             -0.05826         *
 * Ni             29      0.11155              0.06350             -0.00269         *
 * Ni             30      0.26029             -0.06318             -0.11361         *
 * Ni             31      0.14210              0.21099             -0.26628         *
 * Ni             32      0.00368             -0.03167              0.03591         *
 * Ni             33     -0.05333              0.02488              0.00603         *
 * Ni             34     -0.03392             -0.06976             -0.02496         *
 * Ni             35      0.23955             -0.00585             -0.00844         *
 * Ni             36      0.31106              0.09467              0.05440         *
 * Ni             37      0.20895             -0.05103             -0.07188         *
 * Ni             38      0.02670             -0.02877             -0.00098         *
 * Ni             39     -0.07603              0.00031              0.02258         *
 * Ni             40     -0.01792             -0.04042             -0.02271         *
 * Ni             41      0.41179              0.00658             -0.02517         *
 * Ni             42      0.26912              0.06539             -0.05695         *
 * Ni             43      0.08984             -0.04642              0.03038         *
 * Ni             44      0.09351             -0.00755             -0.01020         *
 * Ni             45     -0.03351             -0.01142              0.02665         *
 * Ni             46      0.02197              0.06558             -0.01122         *
 * Ni             47     -0.07999              0.14776              0.10407         *
 * Ni             48     -0.01041             -0.11452             -0.09849         *
 * Ni             49      0.20665             -0.05554              0.12831         *
 * Ni             50      0.00335             -0.02490             -0.02947         *
 * Ni             51     -0.09276              0.01247             -0.00815         *
 * Ni             52      0.08390             -0.01333              0.01156         *
 * Ni             53     -0.08345             -0.22684             -0.08178         *
 * Ni             54     -0.14738             -0.05784             -0.21685         *
 * Ni             55      0.09622              0.00158             -0.15551         *
 * Ni             56      0.01987              0.02599             -0.05041         *
 * Ni             57      0.02113              0.02202              0.01332         *
 * Ni             58     -0.00564              0.02246             -0.02212         *
 * Ni             59     -0.03828              0.20652              0.00119         *
 * Ni             60      0.11888             -0.13036             -0.04966         *
 * Ni             61      0.09857              0.05397             -0.16250         *
 * Ni             62     -0.00654             -0.01006              0.00488         *
 * Ni             63     -0.11341              0.00059             -0.05010         *
 * Ni             64     -0.03814              0.01174              0.01493         *
 * Ni             65      0.02194             -0.11487              0.09642         *
 * Ni             66      0.14878              0.02780             -0.04039         *
 * Ni             67      0.08371              0.00068             -0.14629         *
 * Ni             68     -0.00658             -0.00455             -0.00474         *
 * Ni             69     -0.01890             -0.03927             -0.01995         *
 * Ni             70      0.00398             -0.03389              0.00259         *
 * Ni             71     -0.22593              0.04924             -0.50015         *
 * Ni             72     -0.07569             -0.03648              0.11509         *
 * Ni             73      0.10041             -0.00666              0.05976         *
 * Ni             74      0.02775             -0.00239             -0.00345         *
 * Ni             75      0.09745             -0.00843              0.02733         *
 * Ni             76     -0.00451             -0.02872              0.03995         *
 * Ni             77      0.09068             -0.06287             -0.12914         *
 * Ni             78     -0.13011              0.00944              0.18549         *
 * Ni             79      0.11154             -0.03678              0.12982         *
 * Ni             80      0.03478              0.03195              0.00805         *
 * Ni             81      0.00929              0.02418             -0.00215         *
 * Ni             82      0.00077             -0.00745             -0.00520         *
 * Ni             83      0.11136             -0.05055             -0.11917         *
 * Ni             84      0.00874             -0.03132             -0.13932         *
 * Ni             85      0.12015             -0.00881              0.04560         *
 * Ni             86     -0.00194             -0.00395             -0.01291         *
 * Ni             87     -0.01239             -0.01114             -0.00458         *
 * Ni             88     -0.05492              0.02705              0.01946         *
 * Ni             89      0.14245              0.12025             -0.15608         *
 * Ni             90     -0.23349             -0.35082             -0.13125         *
 * Ni             91      0.12732              0.05929             -0.00809         *
 * Ni             92      0.00630             -0.03166              0.01204         *
 * Ni             93     -0.00660             -0.00334             -0.03107         *
 * Ni             94      0.01361              0.01384              0.01812         *
 * Ni             95     -0.11081             -0.07214              0.09469         *
 * Ni             96     -0.34636              0.26491             -0.13242         *
 * Ni             97     -0.27142              0.33538              0.07304         *
 * Ni             98      0.01471             -0.17705              0.17095         *
 * Ni             99      0.01088              0.29327              0.14273         *
 * Ni            100      0.22640              0.05841              0.12093         *
 * Ni            101     -0.20740              0.02971             -0.06754         *
 * Ni            102      0.03229             -0.10403              0.18229         *
 * Ni            103      0.09129              0.02419              0.06338         *
 * Ni            104      0.08000             -0.25523              0.44914         *
 * Ni            105     -0.06866             -0.17876              0.04105         *
 * Ni            106      0.32229             -0.05922              0.05459         *
 * Ni            107     -0.18562             -0.16279              0.00264         *
 * Ni            108     -0.07086             -0.00147              0.00474         *
 * Ni            109      0.01395             -0.00175             -0.04053         *
 * Ni            110     -0.16427             -0.17220              0.15409         *
 * Ni            111     -0.22206             -0.05201             -0.05996         *
 * Ni            112      0.03657             -0.14390             -0.04365         *
 * Ni            113      0.26149              0.13652              0.07219         *
 * Ni            114      0.01459             -0.02089              0.00923         *
 * Ni            115     -0.05947              0.01362              0.14010         *
 * Ni            116      0.09002              0.23334              0.17848         *
 * Ni            117      0.07248              0.02013              0.12750         *
 * Ni            118      0.11395             -0.00397              0.13267         *
 * Ni            119      0.16176              0.09376              0.02845         *
 * Ni            120     -0.02842              0.06383             -0.25552         *
 * Ni            121     -0.11932             -0.06343              0.24283         *
 * Ni            122     -0.17074             -0.05752              0.13341         *
 * Ni            123     -0.08474              0.15187             -0.14784         *
 * Ni            124      0.09977             -0.00489             -0.02313         *
 * Ni            125      0.16238              0.29614             -0.10316         *
 * Ni            126     -0.27575             -0.24430              0.06166         *
 * Ni            127     -0.05018             -0.05137             -0.11364         *
 * Ni            128     -0.18003             -0.07873              0.00760         *
 * Ni            129     -0.03669              0.15799             -0.11061         *
 * Ni            130      0.04699             -0.06523              0.00582         *
 * Ni            131      0.03184              0.00653              0.09758         *
 * Ni            132      0.09457             -0.02413              0.04432         *
 * Ni            133      0.12145             -0.12595             -0.15493         *
 * Ni            134     -0.07744              0.11613              0.19437         *
 * Ni            135     -0.18515              0.05394              0.09108         *
 * Ni            136     -0.18840              0.06441             -0.14024         *
 * Ni            137     -0.34672             -0.39879             -0.02302         *
 * Ni            138      0.12016              0.09049             -0.02146         *
 * Ni            139     -0.12684             -0.03082             -0.08068         *
 * Ni            140      0.12606             -0.02065             -0.00438         *
 * Ni            141     -0.13693              0.08562              0.20245         *
 * Ni            142      0.17724              0.01673             -0.11384         *
 * Ni            143      0.32830              0.19821             -0.22823         *
 * Ni            144     -0.09637             -0.05369              0.01176         *
 * Ni            145      0.17057              0.04389             -0.11175         *
 * Ni            146     -0.35490             -0.22652              0.20738         *
 * Ni            147     -0.04487             -0.07240              0.05551         *
 * Ni            148      0.22121              0.10720             -0.03122         *
 * Ni            149      0.20291             -0.05969             -0.25309         *
 * Ni            150      0.02153             -0.07377              0.23464         *
 * Ni            151     -0.31639              0.06225              0.12935         *
 * Ni            152      0.03628             -0.14508             -0.04321         *
 * Ni            153     -0.06781              0.17059             -0.22229         *
 * Ni            154      0.19429              0.21359              0.02290         *
 * Ni            155     -0.00982             -0.12820              0.07386         *
 * Ni            156     -0.04982             -0.12961             -0.28923         *
 * Ni            157      0.25222              0.05424             -0.25553         *
 * Ni            158     -0.17838              0.11503              0.24245         *
 * Ni            159     -0.15505             -0.05296              0.11507         *
 * Ni            160     -0.25264              0.16062              0.21362         *
 * Ni            161     -0.02604              0.06434              0.10979         *
 * Ni            162     -0.00933             -0.12862              0.08091         *
 * Ni            163      0.00559              0.06165              0.25469         *
 * Ni            164      0.33213             -0.09799             -0.08411         *
 * Ni            165     -0.32836              0.04527              0.17505         *
 * Ni            166     -0.10746              0.12409             -0.01486         *
 * Ni            167     -0.05727             -0.15461              0.09646         *
 * Ni            168     -0.24572              0.15678              0.24831         *
 * Ni            169     -0.02835             -0.12554             -0.05798         *
 * Ni            170      0.06667              0.28651             -0.03220         *
 * Ni            171      0.25542              0.11879              0.32457         *
 * Ni            172      0.26022             -0.14596              0.00141         *
 * Ni            173     -0.26664              0.26845             -0.07272         *
 * Ni            174     -0.06048              0.00047              0.01676         *
 * Ni            175      0.03521             -0.07094             -0.02356         *
 * Ni            176     -0.02071             -0.06145              0.21657         *
 * Ni            177      0.05968             -0.01425             -0.17897         *
 * Ni            178      0.07367              0.08922             -0.22490         *
 * Ni            179      0.29025             -0.07738              0.06115         *
 * Ni            180     -0.06921              0.02693             -0.11828         *
 * Ni            181     -0.09653             -0.01914              0.06522         *
 * Ni            182     -0.17407             -0.17303             -0.10042         *
 * Ni            183      0.03194              0.09953              0.35160         *
 * Ni            184     -0.15306              0.15948              0.01054         *
 * Ni            185      0.11355             -0.06037              0.00924         *
 * Ni            186     -0.00378             -0.09765             -0.14036         *
 * Ni            187     -0.06928             -0.10588             -0.19069         *
 * Ni            188      0.05153              0.18286             -0.06972         *
 * Ni            189     -0.08382              0.09751              0.27949         *
 * Ni            190      0.13631             -0.01321             -0.20445         *
 * Ni            191     -0.05792              0.04099             -0.11895         *
 * Ni            192      0.09196             -0.00038             -0.13454         *
 *                                                                                  *
 ************************************************************************************
 LBFGS: finished iteration     0 with enthalpy= -2.71385140E+005 eV
  
 +-----------+-----------------+-----------------+------------+-----+ <-- LBFGS
 | Parameter |      value      |    tolerance    |    units   | OK? | <-- LBFGS
 +-----------+-----------------+-----------------+------------+-----+ <-- LBFGS
 |  dE/ion   |   0.000000E+000 |   2.000000E-005 |         eV | No  | <-- LBFGS
 |  |F|max   |   9.699033E-001 |   5.000000E-002 |       eV/A | No  | <-- LBFGS
 |  |dR|max  |   0.000000E+000 |   1.000000E-003 |          A | No  | <-- LBFGS
 +-----------+-----------------+-----------------+------------+-----+ <-- LBFGS
  

================================================================================
 Starting LBFGS iteration          1 ...
================================================================================
  
 +------------+-------------+-------------+-----------------+ <-- min LBFGS
 |    Step    |   lambda    |   F.delta'  |    enthalpy     | <-- min LBFGS
 +------------+-------------+-------------+-----------------+ <-- min LBFGS
 |  previous  |    0.000000 |    2.079622 |  -271385.140068 | <-- min LBFGS
 +------------+-------------+-------------+-----------------+ <-- min LBFGS
  

--------------------------------------------------------------------------------
 LBFGS: starting iteration         1 with trial guess (lambda=  1.000000)
--------------------------------------------------------------------------------
 
                           -------------------------------
                                     Cell Contents
                           -------------------------------
 
            xxxxxxxxxxxxxxxxxxxxxxxxxxxxxxxxxxxxxxxxxxxxxxxxxxxxxxxxxxxxxxxxx
            x  Element         Atom        Fractional coordinates of atoms  x
            x                 Number           u          v          w      x
            x---------------------------------------------------------------x
            x  Al                1         0.570689   0.307411   0.064464   x
            x  Al                2         0.818253   0.309205   0.063214   x
            x  Al                3         0.569878   0.559263   0.065839   x
            x  Al                4         0.817604   0.558237   0.063654   x
            x  Al                5         0.575305   0.809633   0.060324   x
            x  Al                6         0.819113   0.807802   0.062786   x
            x  Al                7         0.572230   0.058449   0.063463   x
            x  Al                8         0.819975   0.059148   0.062434   x
            x  Al                9         0.569598   0.305965   0.312685   x
            x  Al               10         0.817818   0.308659   0.313933   x
            x  Al               11         0.573346   0.554857   0.311890   x
            x  Al               12         0.816706   0.558098   0.313973   x
            x  Al               13         0.577383   0.814392   0.313141   x
            x  Al               14         0.819196   0.808320   0.313548   x
            x  Al               15         0.574362   0.057121   0.309353   x
            x  Al               16         0.819977   0.058974   0.313357   x
            x  Al               17         0.570256   0.306341   0.562135   x
            x  Al               18         0.817083   0.309542   0.563352   x
            x  Al               19         0.567325   0.559705   0.561506   x
            x  Al               20         0.816102   0.558300   0.563090   x
            x  Al               21         0.574653   0.809407   0.566257   x
            x  Al               22         0.818589   0.807348   0.564022   x
            x  Al               23         0.577138   0.057432   0.569296   x
            x  Al               24         0.819628   0.058860   0.564172   x
            x  Al               25         0.571616   0.308622   0.813989   x
            x  Al               26         0.817117   0.310216   0.813220   x
            x  Al               27         0.568921   0.558949   0.814876   x
            x  Al               28         0.816571   0.557898   0.813050   x
            x  Al               29         0.570685   0.808511   0.814479   x
            x  Al               30         0.819232   0.807163   0.813542   x
            x  Al               31         0.572531   0.057948   0.813107   x
            x  Al               32         0.820045   0.059086   0.813979   x
            x  Al               33         0.328695   0.182481   0.934434   x
            x  Al               34         0.056349   0.057850   0.808084   x
            x  Al               35         0.192981   0.190295   0.805088   x
            x  Al               36         0.321499   0.935470   0.939698   x
            x  Al               37         0.192679   0.929512   0.805050   x
            x  Al               38         0.318591   0.689984   0.944297   x
            x  Al               39         0.074682   0.687544   0.929668   x
            x  Al               40         0.198697   0.188624   0.572709   x
            x  Al               41         0.067230   0.805447   0.566012   x
            x  Al               42         0.326133   0.685014   0.688953   x
            x  Al               43         0.194370   0.667422   0.563667   x
            x  Al               44         0.337263   0.428709   0.680771   x
            x  Al               45         0.328535   0.555024   0.820018   x
            x  Al               46         0.192223   0.432858   0.556873   x
            x  Al               47         0.063739   0.435380   0.688549   x
            x  Al               48         0.317504   0.060371   0.312319   x
            x  Al               49         0.440418   0.057081   0.445079   x
            x  Al               50         0.185824   0.054905   0.185579   x
            x  Al               51         0.068450   0.185169   0.441729   x
            x  Al               52         0.433459   0.814676   0.439823   x
            x  Al               53         0.070862   0.945098   0.442291   x
            x  Al               54         0.201486   0.808497   0.432163   x
            x  Al               55         0.432124   0.677759   0.310313   x
            x  Al               56         0.334570   0.430833   0.439262   x
            x  Al               57         0.188481   0.425163   0.313495   x
            x  Al               58         0.187095   0.186346   0.057711   x
            x  Al               59         0.434356   0.816950   0.185475   x
            x  Al               60         0.191697   0.811544   0.187871   x
            x  Al               61         0.191591   0.426156   0.055730   x
            x  Al               62         0.193510   0.427325   0.821504   x
            x  Al               63         0.188906   0.565181   0.184526   x
            x  Ni                1         0.568086   0.431587   0.187872   x
            x  Ni                2         0.694191   0.307832   0.188620   x
            x  Ni                3         0.693656   0.433459   0.064142   x
            x  Ni                4         0.817455   0.433621   0.189089   x
            x  Ni                5         0.942307   0.309348   0.188489   x
            x  Ni                6         0.942048   0.434086   0.063296   x
            x  Ni                7         0.564555   0.687906   0.191594   x
            x  Ni                8         0.693039   0.558930   0.188586   x
            x  Ni                9         0.693547   0.683085   0.064430   x
            x  Ni               10         0.818573   0.683032   0.188585   x
            x  Ni               11         0.941985   0.558335   0.188683   x
            x  Ni               12         0.942547   0.682773   0.063182   x
            x  Ni               13         0.569286   0.932594   0.186065   x
            x  Ni               14         0.695874   0.808931   0.187463   x
            x  Ni               15         0.696462   0.934207   0.062180   x
            x  Ni               16         0.820188   0.933580   0.187589   x
            x  Ni               17         0.942751   0.807901   0.188147   x
            x  Ni               18         0.943312   0.933128   0.062723   x
            x  Ni               19         0.569020   0.182489   0.187749   x
            x  Ni               20         0.696300   0.058331   0.186927   x
            x  Ni               21         0.694844   0.183633   0.062925   x
            x  Ni               22         0.819214   0.183992   0.188061   x
            x  Ni               23         0.943230   0.058864   0.187976   x
            x  Ni               24         0.943045   0.184534   0.062950   x
            x  Ni               25         0.562047   0.432043   0.441246   x
            x  Ni               26         0.691788   0.307458   0.438030   x
            x  Ni               27         0.692024   0.431826   0.314580   x
            x  Ni               28         0.816727   0.433650   0.438716   x
            x  Ni               29         0.942226   0.309362   0.438830   x
            x  Ni               30         0.941792   0.433957   0.313811   x
            x  Ni               31         0.563838   0.688645   0.433519   x
            x  Ni               32         0.690687   0.558874   0.438136   x
            x  Ni               33         0.693682   0.683941   0.313272   x
            x  Ni               34         0.817651   0.682944   0.438632   x
            x  Ni               35         0.941829   0.558437   0.438699   x
            x  Ni               36         0.942278   0.682965   0.313705   x
            x  Ni               37         0.568177   0.934978   0.440395   x
            x  Ni               38         0.694880   0.809436   0.439111   x
            x  Ni               39         0.697442   0.934903   0.313150   x
            x  Ni               40         0.820066   0.933471   0.439058   x
            x  Ni               41         0.942697   0.807810   0.438866   x
            x  Ni               42         0.943026   0.933274   0.313434   x
            x  Ni               43         0.568973   0.177784   0.438279   x
            x  Ni               44         0.695442   0.057655   0.438957   x
            x  Ni               45         0.694962   0.182749   0.313171   x
            x  Ni               46         0.818728   0.183913   0.438655   x
            x  Ni               47         0.943240   0.058833   0.438943   x
            x  Ni               48         0.942747   0.184207   0.313537   x
            x  Ni               49         0.563651   0.433783   0.683299   x
            x  Ni               50         0.692611   0.309592   0.688194   x
            x  Ni               51         0.690932   0.433687   0.562338   x
            x  Ni               52         0.816577   0.434354   0.687930   x
            x  Ni               53         0.942348   0.309893   0.688345   x
            x  Ni               54         0.941906   0.434228   0.563475   x
            x  Ni               55         0.567444   0.684533   0.689565   x
            x  Ni               56         0.690523   0.558330   0.687813   x
            x  Ni               57         0.691780   0.682961   0.562496   x
            x  Ni               58         0.817360   0.682054   0.688193   x
            x  Ni               59         0.942028   0.558390   0.688192   x
            x  Ni               60         0.942265   0.682694   0.563627   x
            x  Ni               61         0.570523   0.932740   0.690691   x
            x  Ni               62         0.695254   0.807629   0.689947   x
            x  Ni               63         0.696967   0.933155   0.564829   x
            x  Ni               64         0.820085   0.932780   0.689385   x
            x  Ni               65         0.942848   0.807323   0.688601   x
            x  Ni               66         0.943132   0.933042   0.564035   x
            x  Ni               67         0.571313   0.182275   0.689628   x
            x  Ni               68         0.697557   0.058304   0.690556   x
            x  Ni               69         0.695485   0.183725   0.563792   x
            x  Ni               70         0.818898   0.185010   0.688976   x
            x  Ni               71         0.943144   0.058936   0.688686   x
            x  Ni               72         0.942564   0.184489   0.563811   x
            x  Ni               73         0.568024   0.433794   0.941162   x
            x  Ni               74         0.693262   0.308977   0.938852   x
            x  Ni               75         0.690450   0.434402   0.812622   x
            x  Ni               76         0.817123   0.434066   0.937982   x
            x  Ni               77         0.942568   0.309796   0.937898   x
            x  Ni               78         0.942114   0.434286   0.813045   x
            x  Ni               79         0.568206   0.684292   0.939340   x
            x  Ni               80         0.692468   0.558440   0.939287   x
            x  Ni               81         0.693188   0.682538   0.813758   x
            x  Ni               82         0.818069   0.682287   0.938423   x
            x  Ni               83         0.942236   0.558263   0.938106   x
            x  Ni               84         0.942405   0.682370   0.813183   x
            x  Ni               85         0.569617   0.934265   0.937549   x
            x  Ni               86         0.695694   0.808113   0.937586   x
            x  Ni               87         0.696001   0.933037   0.814108   x
            x  Ni               88         0.819986   0.933424   0.937909   x
            x  Ni               89         0.942920   0.807541   0.938067   x
            x  Ni               90         0.943612   0.932956   0.813392   x
            x  Ni               91         0.568755   0.182419   0.938495   x
[...]
             Al 20 -- Ni 35                  0.17         0.00          2.58838
            Ni 105 -- Ni 131                 0.02        -0.00          2.58858
             Al 23 -- Ni 165                 0.19        -0.00          2.58861
            Ni 43  -- Ni 144                 0.01         0.00          2.58873
             Al 40 -- Ni 124                 0.20         0.00          2.58892
            Ni 47  -- Ni 48                 -0.00        -0.00          2.58898
            Ni 142 -- Ni 143                 0.05        -0.00          2.58905
            Ni 114 -- Ni 140                 0.05        -0.00          2.58909
             Al 15 -- Ni 44                  0.20        -0.00          2.58915
             Al 22 -- Ni 62                  0.20        -0.00          2.58940
             Al 40 -- Ni 170                 0.19         0.00          2.58945
            Ni 36  -- Ni 129                 0.11        -0.00          2.58961
            Ni 110 -- Ni 136                 0.06        -0.00          2.58997
             Al 53 -- Ni 163                 0.16        -0.00          2.59009
            Ni 110 -- Ni 112                 0.05        -0.00          2.59058
             Al 60 -- Ni 112                 0.17        -0.00          2.59095
            Ni 130 -- Ni 131                 0.12        -0.00          2.59119
            Ni 28  -- Ni 51                  0.04         0.00          2.59147
            Ni 104 -- Ni 177                 0.05        -0.00          2.59150
             Al 40 -- Ni 163                 0.16        -0.00          2.59157
            Ni 71  -- Ni 96                  0.01         0.00          2.59168
            Ni 133 -- Ni 135                 0.03        -0.00          2.59169
            Ni 12  -- Ni 89                  0.03        -0.00          2.59189
             Al 48 -- Ni 141                 0.18        -0.00          2.59212
             Al 61 -- Ni 97                  0.18         0.00          2.59221
            Ni 174 -- Ni 182                 0.00         0.00          2.59266
             Al 14 -- Ni 16                  0.19         0.00          2.59285
            Ni 90  -- Ni 95                  0.01        -0.00          2.59292
            Ni 37  -- Ni 38                  0.07         0.00          2.59311
             Al 27 -- Ni 49                  0.18        -0.00          2.59319
            Ni 169 -- Ni 171                -0.00        -0.00          2.59323
            Ni 128 -- Ni 144                 0.14         0.00          2.59332
            Ni 34  -- Ni 41                  0.06         0.00          2.59379
            Ni 67  -- Ni 165                 0.02         0.00          2.59400
            Ni 101 -- Ni 144                 0.09        -0.00          2.59423
            Ni 183 -- Ni 185                 0.07        -0.00          2.59430
            Ni 13  -- Ni 120                 0.04         0.00          2.59435
             Al 49 -- Ni 139                 0.18         0.00          2.59463
            Ni 170 -- Ni 175                -0.01         0.00          2.59573
            Ni 116 -- Ni 118                 0.02        -0.00          2.59581
            Ni 129 -- Ni 132                 0.11        -0.00          2.59602
             Al 34 -- Ni 162                 0.16        -0.00          2.59658
            Ni 26  -- Ni 43                  0.06         0.00          2.59663
             Al 51 -- Ni 124                 0.19        -0.00          2.59694
             Al 12 -- Ni 32                  0.20        -0.00          2.59700
             Al 63 -- Ni 97                  0.17         0.00          2.59725
             Al 15 -- Ni 37                  0.19        -0.00          2.59744
            Ni 145 -- Ni 170                -0.00        -0.00          2.59750
             Al 43 -- Ni 150                 0.18         0.00          2.59782
            Ni 59  -- Ni 78                 -0.00        -0.00          2.59786
            Ni 155 -- Ni 156                 0.06         0.00          2.59804
            Ni 13  -- Ni 139                -0.01         0.00          2.59807
            Ni 1   -- Ni 8                   0.03        -0.00          2.59822
             Al 16 -- Ni 40                  0.19        -0.00          2.59836
            Ni 35  -- Ni 129                 0.10         0.00          2.59837
            Ni 151 -- Ni 152                 0.04         0.00          2.59882
            Ni 151 -- Ni 174                -0.04         0.00          2.59893
             Al 44 -- Ni 170                 0.16        -0.00          2.59916
            Ni 60  -- Ni 65                  0.01         0.00          2.59917
            Ni 111 -- Ni 186                 0.08         0.00          2.59921
            Ni 51  -- Ni 52                  0.04         0.00          2.59938
            Ni 13  -- Ni 20                  0.06         0.00          2.59955
            Ni 138 -- Ni 139                -0.01         0.00          2.59956
             Al 17 -- Ni 69                  0.18        -0.00          2.60016
             Al 41 -- Ni 129                 0.20         0.00          2.60061
            Ni 41  -- Ni 66                 -0.03         0.00          2.60070
            Ni 49  -- Ni 75                  0.01         0.00          2.60095
             Al 38 -- Ni 188                 0.17        -0.00          2.60100
            Ni 133 -- Ni 160                -0.02         0.00          2.60108
             Al 56 -- Ni 135                 0.15         0.00          2.60117
            Ni 155 -- Ni 157                 0.07         0.00          2.60120
             Al 50 -- Ni 142                 0.15        -0.00          2.60154
             Al 56 -- Ni 128                 0.14         0.00          2.60168
             Al 60 -- Ni 113                 0.19        -0.00          2.60180
             Al 3  -- Ni 180                 0.17        -0.00          2.60205
             Al 58 -- Ni 117                 0.15        -0.00          2.60205
            Ni 53  -- Ni 54                  0.00         0.00          2.60233
            Ni 123 -- Ni 124                 0.02        -0.00          2.60247
            Ni 117 -- Ni 122                 0.03        -0.00          2.60292
            Ni 99  -- Ni 169                 0.01        -0.00          2.60293
            Ni 112 -- Ni 122                 0.11         0.00          2.60320
            Ni 41  -- Ni 42                  0.03        -0.00          2.60405
            Ni 68  -- Ni 69                  0.03         0.00          2.60430
            Ni 13  -- Ni 39                  0.01         0.00          2.60442
            Ni 111 -- Ni 115                 0.04        -0.00          2.60470
            Ni 47  -- Ni 163                 0.06        -0.00          2.60504
            Ni 54  -- Ni 59                  0.00        -0.00          2.60548
            Ni 150 -- Ni 178                 0.08         0.00          2.60548
            Ni 143 -- Ni 167                 0.01         0.00          2.60553
            Ni 138 -- Ni 159                 0.02         0.00          2.60554
            Ni 25  -- Ni 27                  0.00         0.00          2.60580
            Ni 161 -- Ni 162                -0.01         0.00          2.60614
            Ni 95  -- Ni 96                  0.01        -0.00          2.60673
             Al 22 -- Ni 57                  0.19        -0.00          2.60687
            Ni 152 -- Ni 158                 0.03         0.00          2.60749
             Al 55 -- Ni 31                  0.17        -0.00          2.60752
            Ni 178 -- Ni 185                 0.08        -0.00          2.60824
            Ni 130 -- Ni 153                -0.01         0.00          2.60834
            Ni 55  -- Ni 181                 0.06         0.00          2.60841
            Ni 113 -- Ni 139                 0.01        -0.00          2.60846
             Al 9  -- Ni 43                  0.19        -0.00          2.60895
            Ni 147 -- Ni 170                -0.02         0.00          2.60922
            Ni 129 -- Ni 130                 0.08        -0.00          2.60933
            Ni 169 -- Ni 172                 0.01        -0.00          2.60933
             Al 38 -- Ni 177                 0.17         0.00          2.60943
            Ni 53  -- Ni 78                  0.00        -0.00          2.60973
            Ni 173 -- Ni 192                -0.01         0.00          2.61037
             Al 21 -- Ni 159                 0.16         0.00          2.61064
             Al 11 -- Ni 107                 0.16         0.00          2.61077
             Al 34 -- Ni 122                 0.16        -0.00          2.61095
             Al 9  -- Ni 144                 0.18        -0.00          2.61162
            Ni 146 -- Ni 174                 0.01         0.00          2.61199
            Ni 172 -- Ni 177                -0.02        -0.00          2.61280
             Al 51 -- Ni 163                 0.16        -0.00          2.61296
             Al 38 -- Ni 178                 0.17        -0.00          2.61307
            Ni 121 -- Ni 173                 0.01         0.00          2.61311
            Ni 71  -- Ni 90                  0.02         0.00          2.61319
             Al 58 -- Ni 122                 0.18        -0.00          2.61359
            Ni 117 -- Ni 191                 0.08         0.00          2.61367
            Ni 156 -- Ni 167                 0.11         0.00          2.61431
             Al 61 -- Ni 104                 0.15         0.00          2.61435
            Ni 178 -- Ni 184                 0.03        -0.00          2.61452
            Ni 168 -- Ni 177                 0.03        -0.00          2.61505
             Al 17 -- Ni 43                  0.17        -0.00          2.61518
            Ni 115 -- Ni 117                 0.09         0.00          2.61573
            Ni 138 -- Ni 160                 0.05         0.00          2.61645
             Al 53 -- Ni 137                 0.18         0.00          2.61711
            Ni 127 -- Ni 134                 0.02         0.00          2.61728
             Al 48 -- Ni 120                 0.18        -0.00          2.61794
             Al 21 -- Ni 31                  0.19         0.00          2.61860
            Ni 130 -- Ni 149                -0.02        -0.00          2.61894
            Ni 178 -- Ni 179                 0.06        -0.00          2.61903
            Ni 158 -- Ni 181                -0.01         0.00          2.61907
             Al 46 -- Ni 153                 0.15        -0.00          2.61908
            Ni 65  -- Ni 66                  0.02         0.00          2.61942
             Al 40 -- Ni 143                 0.18         0.00          2.62016
            Ni 152 -- Ni 160                 0.02         0.00          2.62074
            Ni 140 -- Ni 141                 0.07        -0.00          2.62122
             Al 35 -- Ni 122                 0.17         0.00          2.62130
             Al 58 -- Ni 119                 0.16        -0.00          2.62143
             Al 36 -- Ni 122                 0.17         0.00          2.62175
            Ni 37  -- Ni 39                  0.01         0.00          2.62274
            Ni 136 -- Ni 141                 0.01        -0.00          2.62297
            Ni 102 -- Ni 109                -0.00        -0.00          2.62304
            Ni 110 -- Ni 118                 0.04        -0.00          2.62330
             Al 5  -- Ni 7                   0.19         0.00          2.62346
             Al 36 -- Ni 184                 0.17         0.00          2.62399
            Ni 42  -- Ni 47                 -0.01        -0.00          2.62439
            Ni 159 -- Ni 160                 0.09         0.00          2.62534
            Ni 65  -- Ni 148                 0.04         0.00          2.62687
             Al 50 -- Ni 117                 0.14        -0.00          2.62827
             Al 43 -- Ni 155                 0.18        -0.00          2.62896
            Ni 102 -- Ni 108                 0.09        -0.00          2.62920
             Al 47 -- Ni 150                 0.18        -0.00          2.62921
            Ni 124 -- Ni 125                 0.03        -0.00          2.63065
            Ni 134 -- Ni 135                 0.09        -0.00          2.63094
             Al 5  -- Ni 115                 0.15        -0.00          2.63169
            Ni 156 -- Ni 157                 0.12         0.00          2.63171
            Ni 158 -- Ni 160                 0.11         0.00          2.63213
            Ni 154 -- Ni 155                 0.06         0.00          2.63287
            Ni 114 -- Ni 138                 0.00         0.00          2.63306
             Al 23 -- Ni 166                 0.14         0.00          2.63310
            Ni 170 -- Ni 171                -0.02        -0.00          2.63334
             Al 44 -- Ni 175                 0.16         0.00          2.63346
            Ni 162 -- Ni 164                 0.01         0.00          2.63356
             Al 52 -- Ni 37                  0.15        -0.00          2.63452
             Al 38 -- Ni 182                 0.16        -0.00          2.63470
             Al 63 -- Ni 100                 0.16        -0.00          2.63511
            Ni 108 -- Ni 111                 0.02        -0.00          2.63556
             Al 37 -- Ni 190                 0.15         0.00          2.63881
             Al 39 -- Ni 178                 0.18        -0.00          2.63972
            Ni 150 -- Ni 153                -0.01         0.00          2.64009
             Al 52 -- Ni 31                  0.16        -0.00          2.64014
             Al 11 -- Ni 31                  0.17        -0.00          2.64031
            Ni 155 -- Ni 188                 0.03         0.00          2.64060
            Ni 31  -- Ni 32                  0.05         0.00          2.64093
            Ni 7   -- Ni 107                 0.01        -0.00          2.64113
            Ni 126 -- Ni 127                -0.00         0.00          2.64202
             Al 23 -- Ni 159                 0.14         0.00          2.64275
            Ni 31  -- Ni 57                  0.07         0.00          2.64290
            Ni 114 -- Ni 133                -0.03         0.00          2.64333
            Ni 156 -- Ni 162                 0.12         0.00          2.64336
             Al 48 -- Al 50                  0.25        -0.00          2.64489
             Al 3  -- Ni 7                   0.18         0.00          2.64544
             Al 44 -- Ni 150                 0.14        -0.00          2.64552
             Al 59 -- Ni 7                   0.15        -0.00          2.64557
             Al 46 -- Ni 147                 0.13        -0.00          2.64752
            Ni 106 -- Ni 135                 0.03        -0.00          2.64901
             Al 50 -- Al 58                  0.24        -0.00          2.64960
             Al 13 -- Ni 139                 0.16         0.00          2.64966
             Al 48 -- Al 49                  0.26         0.00          2.65098
             Al 37 -- Ni 122                 0.16         0.00          2.65285
             Al 33 -- Ni 122                 0.15         0.00          2.65450
             Al 35 -- Ni 189                 0.15         0.00          2.65486
             Al 50 -- Ni 119                 0.13        -0.00          2.65937
            Ni 7   -- Ni 8                   0.05        -0.00          2.66003
             Al 35 -- Ni 190                 0.13        -0.00          2.66039
            Ni 7   -- Ni 9                   0.06        -0.00          2.66417
             Al 43 -- Ni 160                 0.15        -0.00          2.66550
             Al 42 -- Al 43                  0.25         0.00          2.66879
             Al 42 -- Ni 153                 0.16         0.00          2.67206
             Al 23 -- Al 49                  0.24         0.00          2.67253
             Al 38 -- Al 45                  0.23         0.00          2.68056
            Ni 168 -- Ni 169                 0.02        -0.00          2.68929
            Ni 148 -- Ni 150                 0.07        -0.00          2.69035
             Al 46 -- Al 56                  0.26         0.00          2.69570
             Al 45 -- Al 62                  0.21        -0.00          2.69606
            Ni 161 -- Ni 170                 0.02         0.00          2.70722
             Al 5  -- Al 59                  0.20         0.00          2.71259
             Al 56 -- Ni 130                 0.10         0.00          2.71739
             Al 19 -- Ni 31                  0.13        -0.00          2.71836
             Al 42 -- Al 45                  0.21         0.00          2.72139
             Al 11 -- Al 55                  0.20        -0.00          2.72193
             Al 36 -- Al 37                  0.22         0.00          2.72360
            Ni 164 -- Ni 170                 0.04         0.00          2.72387
            Ni 149 -- Ni 150                 0.00         0.00          2.72387
             Al 55 -- Al 59                  0.20        -0.00          2.73521
             Al 56 -- Ni 124                 0.10         0.00          2.73578
             Al 34 -- Al 35                  0.19         0.00          2.73616
             Al 46 -- Al 47                  0.21        -0.00          2.73667
             Al 33 -- Al 35                  0.21         0.00          2.73918
             Al 33 -- Al 58                  0.20        -0.00          2.74226
             Al 21 -- Al 52                  0.20         0.00          2.74397
             Al 34 -- Al 37                  0.19         0.00          2.74447
             Al 57 -- Al 63                  0.19        -0.00          2.74900
             Al 61 -- Al 63                  0.20        -0.00          2.74956
             Al 52 -- Al 55                  0.20         0.00          2.76070
             Al 47 -- Al 62                  0.18        -0.00          2.76711
             Al 15 -- Al 49                  0.19         0.00          2.77216
             Al 44 -- Al 46                  0.20         0.00          2.77412
             Al 40 -- Al 51                  0.20         0.00          2.77865
             Al 53 -- Al 54                  0.18        -0.00          2.78124
             Al 41 -- Al 43                  0.16         0.00          2.78617
             Al 42 -- Ni 150                 0.11         0.00          2.78680
             Al 44 -- Al 45                  0.15         0.00          2.78931
             Al 41 -- Al 53                  0.17        -0.00          2.80388
             Al 43 -- Al 54                  0.16         0.00          2.80678
             Al 13 -- Al 59                  0.17        -0.00          2.83127
             Al 13 -- Al 52                  0.17         0.00          2.83261
             Al 56 -- Al 57                  0.15        -0.00          2.84116
             Al 41 -- Al 54                  0.12         0.00          2.86861
             Al 13 -- Al 55                  0.08         0.00          2.95603
================================================================================
 

Writing analysis data to castep.castep_bin

Writing model to castep.check
 
 A BibTeX formatted list of references used in this run has been written to 
 castep.bib
 
Initialisation time =     13.64 s
Calculation time    =  18220.32 s
Finalisation time   =     11.71 s
Total time          =  18245.67 s
Peak Memory Use     = 2303492 kB
  
Overall parallel efficiency rating: Good (70%)                                  
  
Data was distributed by:-
G-vector (48-way); efficiency rating: Good (71%)                                
