 +-------------------------------------------------+
 |                                                 |
 |      CCC   AA    SSS  TTTTT  EEEEE  PPPP        |
 |     C     A  A  S       T    E      P   P       |
 |     C     AAAA   SS     T    EEE    PPPP        |
 |     C     A  A     S    T    E      P           |
 |      CCC  A  A  SSS     T    EEEEE  P           |
 |                                                 |
 +-------------------------------------------------+
 |                                                 |
 | Welcome to Academic Release CASTEP version 20.11|          
 | Ab Initio Total Energy Program                  |
 |                                                 |
 | Authors:                                        |
 | M. Segall, M. Probert, C. Pickard, P. Hasnip,   |
 | S. Clark, K. Refson, J. R. Yates, M. Payne      |
 |                                                 |
 | Contributors:                                   |
 | P. Lindan, P. Haynes, J. White, V. Milman,      |
 | N. Govind, M. Gibson, P. Tulip, V. Cocula,      |
 | B. Montanari, D. Quigley, M. Glover,            |
 | L. Bernasconi, A. Perlov, M. Plummer,           |
 | E. McNellis, J. Meyer, J. Gale, D. Jochym       |
 | J. Aarons, B. Walker, R. Gillen, D. Jones       |
 | T. Green, I. J. Bush, C. J. Armstrong,          |
 | E. J. Higgins, E. L. Brown, M. S. McFly,        |
 | J. Wilkins, B-C. Shih, P. J. P. Byrne,          |
 | R. J. Maurer, J. C. Womack, J. Dziedzic,        |
 | J. R. Kermode, A. Bartok-Partay                 |
 |                                                 |
 | Copyright (c) 2000 - 2020                       |
 |                                                 |
 |     Distributed under license from Cambridge    |
 |     Enterprise for academic use only.           |
 |                                                 |
 | Please cite                                     |
 |                                                 |
 |     "First principles methods using CASTEP"     |
 |                                                 |
 |         Zeitschrift fuer Kristallographie       |
 |           220(5-6) pp. 567-570 (2005)           |
 |                                                 |
 | S. J. Clark, M. D. Segall, C. J. Pickard,       |
 | P. J. Hasnip, M. J. Probert, K. Refson,         |
 | M. C. Payne                                     |
 |                                                 |
 |       in all publications arising from          |
 |              your use of CASTEP                 |
 |                                                 |
 +-------------------------------------------------+
 |                                                 |
 |              http://www.castep.org              |
 |                                                 |
 +-------------------------------------------------+
 
 
 
 Compiled for linux_x86_64_ifort on Wed, 25 Aug 2021 18:50:38 +0100
 from code version e772bf432+  HEAD  Sat Apr 3 17:41:32 2021 +0100
 Compiler: Intel Fortran 19.0.5.281; Optimisation: fast
 MATHLIBS: Intel MKL(2019.0.5) (LAPACK version 3.7.0)
 FFT Lib : mkl
 Fundamental constants values: CODATA 2014
 
 Run started: Thu, 09 Mar 2023 05:26:25 +0000
 
 Atomic calculation performed for Al: 1s2 2s2 2p6 3s2 3p1
 
 Converged in 52 iterations to an ae energy of -6606.982 eV
 
   ============================================================                
   | Pseudopotential Report - Date of generation  9-03-2023   |                
   ------------------------------------------------------------                
   | Element: Al Ionic charge:  3.00 Level of theory: RPBE    |                
   | Atomic Solver: Koelling-Harmon                           |                
   |                                                          |                
   |               Reference Electronic Structure             |                
   |         Orbital         Occupation         Energy        |                
   |            3s              2.000           -0.284        |                
   |            3p              1.000           -0.100        |                
   |                                                          |                
   |                 Pseudopotential Definition               |                
   |        Beta     l      e      Rc     scheme   norm       |                
   |          1      0   -0.284   2.192     qc      0         |                
   |          2      0    0.250   2.192     qc      0         |                
   |          3      1   -0.100   2.192     qc      0         |                
   |          4      1    0.250   2.192     qc      0         |                
   |          5      2    0.000   2.000     qc      0         |                
   |          6      2    0.250   2.000     qc      0         |                
   |         loc     3    0.000   2.192     pn      0         |                
   |                                                          |                
   | Augmentation charge Rinner = 1.398                       |                
   | Partial core correction Rc = 1.398                       |                
   ------------------------------------------------------------                
   | "3|2.2|2.2|1.4|4|5|5|30:31:32U2U2"                       |                
   ------------------------------------------------------------                
   |      Author: Chris J. Pickard, Cambridge University      |                
   ============================================================                
 
 Atomic calculation performed for Ni: 1s2 2s2 2p6 3s2 3p6 3d8 4s2
 
 Converged in 109 iterations to an ae energy of -41381.414 eV
 
   ============================================================                
   | Pseudopotential Report - Date of generation  9-03-2023   |                
   ------------------------------------------------------------                
   | Element: Ni Ionic charge: 10.00 Level of theory: RPBE    |                
   | Atomic Solver: Koelling-Harmon                           |                
   |                                                          |                
   |               Reference Electronic Structure             |                
   |         Orbital         Occupation         Energy        |                
   |            3d              8.000           -0.324        |                
   |            4s              2.000           -0.204        |                
   |                                                          |                
   |                 Pseudopotential Definition               |                
   |        Beta     l      e      Rc     scheme   norm       |                
   |          1      0   -0.204   2.401     qc      0         |                
   |          2      0    0.250   2.401     qc      0         |                
   |          3      1    0.000   2.401     qc      0         |                
   |          4      1    0.250   2.401     qc      0         |                
   |          5      2   -0.324   1.999     qc      0         |                
   |          6      2    0.250   1.999     qc      0         |                
   |         loc     3    0.000   2.401     pn      0         |                
   |                                                          |                
   | Augmentation charge Rinner = 1.001                       |                
   | Partial core correction Rc = 1.001                       |                
   ------------------------------------------------------------                
   | "3|2.4|2.4|1.0|8|9|10|40:41:32U2U2(qc=5.5)"              |                
   ------------------------------------------------------------                
   |      Author: Chris J. Pickard, Cambridge University      |                
   ============================================================                
 
 Pseudo atomic calculation performed for Al 3s2 3p1
 
 Converged in 13 iterations to a total energy of -107.6592 eV
 
 Pseudo atomic calculation performed for Ni 3d8 4s2
 
 Converged in 41 iterations to a total energy of -1369.7891 eV
 Calculation parallelised over 48 processes.
 Data is distributed by G-vector(48-way)

 ************************************ Title ************************************
 

 ***************************** General Parameters ******************************
  
 output verbosity                               : normal  (1)
 write checkpoint data to                       : castep.check
 type of calculation                            : geometry optimization
 stress calculation                             : off
 density difference calculation                 : off
 electron localisation func (ELF) calculation   : off
 Hirshfeld analysis                             : off
 molecular orbital projected DOS                : off
 deltaSCF calculation                           : off
 unlimited duration calculation
 timing information                             : on
 memory usage estimate                          : on
 write extra output files                       : on
 write final potential to formatted file        : off
 write final density to formatted file          : off
 write BibTeX reference list                    : on
 write OTFG pseudopotential files               : on
 write electrostatic potential file             : on
 write bands file                               : on
 checkpoint writing                             : both castep_bin and check files
  
 output         length unit                     : A
 output           mass unit                     : amu
 output           time unit                     : ps
 output         charge unit                     : e
 output           spin unit                     : hbar/2
 output         energy unit                     : eV
 output          force unit                     : eV/A
 output       velocity unit                     : A/ps
 output       pressure unit                     : GPa
 output     inv_length unit                     : 1/A
 output      frequency unit                     : cm-1
 output force constant unit                     : eV/A**2
 output         volume unit                     : A**3
 output   IR intensity unit                     : (D/A)**2/amu
 output         dipole unit                     : D
 output         efield unit                     : eV/A/e
 output        entropy unit                     : J/mol/K
 output    efield chi2 unit                     : pm/V
  
 wavefunctions paging                           : none
 random number generator seed                   : randomised (52625537)
 data distribution                              : optimal for this architecture
 optimization strategy                          : maximize speed(+++)

 *********************** Exchange-Correlation Parameters ***********************
  
 using functional                               : revised Perdew Burke Ernzerhof
 relativistic treatment                         : Koelling-Harmon
 DFT+D: Semi-empirical dispersion correction    : off

 ************************* Pseudopotential Parameters **************************
  
 pseudopotential representation                 : reciprocal space
 <beta|phi> representation                      : reciprocal space
 spin-orbit coupling                            : off

 **************************** Basis Set Parameters *****************************
  
 plane wave basis set cut-off                   :   900.0000   eV
 size of standard grid                          :     1.7500
 size of   fine   gmax                          :    26.8966   1/A
 finite basis set correction                    : none

 **************************** Electronic Parameters ****************************
  
 number of  electrons                           :  2109.    
 net charge of system                           :  0.000    
 net spin   of system                           :  1.000    
 number of  up  spins                           :  1055.    
 number of down spins                           :  1054.    
 treating system as spin-polarized
 number of bands                                :       1167

 ********************* Electronic Minimization Parameters **********************
  
 Method: Treating system as metallic with density mixing treatment of electrons,
         and number of  SD  steps               :          1
         and number of  CG  steps               :          4
  
 total energy / atom convergence tol.           : 0.1000E-05   eV
 eigen-energy convergence tolerance             : 0.2185E-06   eV
 max force / atom convergence tol.              : ignored
 convergence tolerance window                   :          3   cycles
 max. number of SCF cycles                      :        200
 number of fixed-spin iterations                :         10
 smearing scheme                                : Gaussian
 smearing width                                 : 0.2000       eV
 Fermi energy convergence tolerance             : 0.2721E-13   eV
 periodic dipole correction                     : NONE
 periodically dump wavefunctions to             : castep.wvfn
 dump wavefunctions every                       :          1   SCF cycles

 ************************** Density Mixing Parameters **************************
  
 density-mixing scheme                          : Pulay
 max. length of mixing history                  :         20
 charge density mixing amplitude                : 0.8000    
   spin density mixing amplitude                :  2.000    
 cut-off energy for mixing                      :  900.0       eV

 *********************** Population Analysis Parameters ************************
  
 Population analysis with cutoff                :  3.000       A
 Population analysis output                     : summary and pdos components

 ********************** Geometry Optimization Parameters ***********************
  
 optimization method                            : LBFGS
 max. no. of LBFGS updates                      : unbounded
 variable cell method                           : fixed basis quality
 max. number of steps                           :         30
 estimated bulk modulus                         :  500.0       GPa
 estimated <frequency>                          :  1668.       cm-1
 geom line minimiser                            : on
 with line minimiser tolerance                  :     0.4000
  with spin fully able to relax for all steps
 total energy convergence tolerance             : 0.2000E-04   eV/atom
        max ionic |force| tolerance             : 0.5000E-01   eV/A
 max ionic |displacement| tolerance             : 0.1000E-02   A
   max |stress component| tolerance             : 0.1000       GPa
 convergence tolerance window                   :          2   steps
 backup results every                           :          5   steps
 write geom trajectory file                     : on

 *******************************************************************************
  
 
                           -------------------------------
                                      Unit Cell
                           -------------------------------
        Real Lattice(A)                      Reciprocal Lattice(1/A)
    14.4648280     0.0000000     0.0000000        0.434376773   0.000000000   0.000000000
     0.0000000    14.4648280     0.0000000        0.000000000   0.434376773   0.000000000
     0.0000000     0.0000000    14.4648280        0.000000000   0.000000000   0.434376773
 
                       Lattice parameters(A)       Cell Angles
                    a =     14.464828          alpha =   90.000000
                    b =     14.464828          beta  =   90.000000
                    c =     14.464828          gamma =   90.000000
 
                       Current cell volume =          3026.494030       A**3
                                   density =             4.285146   AMU/A**3
                                           =             7.115653     g/cm^3
 
                           -------------------------------
                                     Cell Contents
                           -------------------------------
                         Total number of ions in cell =  255
                      Total number of species in cell =    2
                        Max number of any one species =  192
 
            xxxxxxxxxxxxxxxxxxxxxxxxxxxxxxxxxxxxxxxxxxxxxxxxxxxxxxxxxxxx
            x  Element    Atom        Fractional coordinates of atoms  x
            x            Number           u          v          w      x
            x----------------------------------------------------------x
            x  Al           1         0.570121   0.937025   0.189318   x 
            x  Al           2         0.817909   0.937986   0.187734   x 
            x  Al           3         0.570243   0.188730   0.189319   x 
            x  Al           4         0.817707   0.187454   0.187818   x 
            x  Al           5         0.575216   0.438799   0.184234   x 
            x  Al           6         0.819264   0.437160   0.186659   x 
            x  Al           7         0.571303   0.686460   0.188539   x 
            x  Al           8         0.819436   0.688045   0.186822   x 
            x  Al           9         0.569115   0.935911   0.435755   x 
            x  Al          10         0.817367   0.937957   0.437510   x 
            x  Al          11         0.567833   0.190570   0.435202   x 
            x  Al          12         0.817167   0.187635   0.437583   x 
            x  Al          13         0.577608   0.440029   0.437683   x 
            x  Al          14         0.819047   0.437304   0.437661   x 
            x  Al          15         0.573504   0.685232   0.433536   x 
            x  Al          16         0.819372   0.687742   0.437404   x 
            x  Al          17         0.571887   0.935682   0.685989   x 
            x  Al          18         0.816645   0.938527   0.687041   x 
            x  Al          19         0.569695   0.189061   0.686122   x 
            x  Al          20         0.816265   0.187183   0.687131   x 
            x  Al          21         0.574575   0.438105   0.690551   x 
            x  Al          22         0.818813   0.436700   0.688350   x 
            x  Al          23         0.576498   0.686166   0.692690   x 
            x  Al          24         0.819119   0.687858   0.688015   x 
            x  Al          25         0.571374   0.937311   0.939006   x 
            x  Al          26         0.817189   0.938566   0.937855   x 
            x  Al          27         0.569206   0.187821   0.939596   x 
            x  Al          28         0.817228   0.186928   0.937598   x 
            x  Al          29         0.570721   0.437455   0.938237   x 
            x  Al          30         0.819232   0.436650   0.937636   x 
            x  Al          31         0.571814   0.687016   0.937180   x 
            x  Al          32         0.819472   0.688213   0.938146   x 
            x  Al          33         0.328815   0.810882   0.059917   x 
            x  Al          34         0.056517   0.686340   0.932070   x 
            x  Al          35         0.193142   0.818343   0.929789   x 
            x  Al          36         0.321851   0.563771   0.064203   x 
            x  Al          37         0.193042   0.558449   0.929019   x 
            x  Al          38         0.317980   0.319377   0.068546   x 
            x  Al          39         0.073680   0.317210   0.053240   x 
            x  Al          40         0.198489   0.816765   0.696318   x 
            x  Al          41         0.066931   0.434202   0.689790   x 
            x  Al          42         0.325501   0.313364   0.812958   x 
            x  Al          43         0.193154   0.296002   0.687667   x 
            x  Al          44         0.331138   0.057101   0.809566   x 
            x  Al          45         0.327598   0.184590   0.945026   x 
            x  Al          46         0.190781   0.062251   0.680759   x 
            x  Al          47         0.063283   0.064030   0.812909   x 
            x  Al          48         0.318037   0.688435   0.436380   x 
            x  Al          49         0.440336   0.685203   0.568657   x 
            x  Al          50         0.186657   0.682288   0.309962   x 
            x  Al          51         0.068467   0.813277   0.565413   x 
            x  Al          52         0.434163   0.437192   0.559658   x 
            x  Al          53         0.070969   0.573604   0.566148   x 
            x  Al          54         0.201087   0.436430   0.556024   x 
            x  Al          55         0.329778   0.199748   0.432963   x 
            x  Al          56         0.330131   0.057966   0.561170   x 
            x  Al          57         0.185537   0.053924   0.436118   x 
            x  Al          58         0.187410   0.814622   0.182598   x 
            x  Al          59         0.435148   0.437997   0.314623   x 
            x  Al          60         0.191099   0.439974   0.311850   x 
            x  Al          61         0.191230   0.055239   0.179980   x 
            x  Al          62         0.192147   0.055936   0.946760   x 
            x  Al          63         0.184584   0.194989   0.305677   x 
            x  Ni           1         0.567687   0.062211   0.312298   x 
            x  Ni           2         0.693702   0.937294   0.312808   x 
            x  Ni           3         0.693494   0.062802   0.188524   x 
            x  Ni           4         0.817412   0.063090   0.312949   x 
            x  Ni           5         0.942030   0.938232   0.312579   x 
            x  Ni           6         0.942100   0.062948   0.187542   x 
            x  Ni           7         0.566018   0.317965   0.314033   x 
            x  Ni           8         0.692386   0.188718   0.312746   x 
            x  Ni           9         0.694157   0.312490   0.187890   x 
            x  Ni          10         0.818691   0.312145   0.312438   x 
            x  Ni          11         0.942254   0.187505   0.312565   x 
            x  Ni          12         0.942604   0.312008   0.187181   x 
            x  Ni          13         0.568653   0.559604   0.311113   x 
            x  Ni          14         0.696591   0.438072   0.311329   x 
            x  Ni          15         0.696027   0.563113   0.186496   x 
            x  Ni          16         0.820036   0.562702   0.311818   x 
            x  Ni          17         0.942634   0.437062   0.312197   x 
            x  Ni          18         0.943183   0.562346   0.186856   x 
            x  Ni          19         0.568402   0.811554   0.312046   x 
            x  Ni          20         0.695416   0.686771   0.311401   x 
            x  Ni          21         0.694011   0.812323   0.187572   x 
            x  Ni          22         0.818611   0.812770   0.312274   x 
            x  Ni          23         0.943000   0.687856   0.312181   x 
            x  Ni          24         0.942781   0.813332   0.187277   x 
            x  Ni          25         0.449331   0.061628   0.685177   x 
            x  Ni          26         0.691909   0.936828   0.560972   x 
            x  Ni          27         0.691722   0.063250   0.436937   x 
            x  Ni          28         0.816350   0.063008   0.562054   x 
            x  Ni          29         0.941667   0.938336   0.562609   x 
            x  Ni          30         0.941796   0.062983   0.437687   x 
            x  Ni          31         0.565361   0.317323   0.559803   x 
            x  Ni          32         0.690899   0.188529   0.561315   x 
            x  Ni          33         0.694110   0.312826   0.437298   x 
            x  Ni          34         0.817916   0.312008   0.562723   x 
            x  Ni          35         0.941825   0.187435   0.562707   x 
            x  Ni          36         0.942341   0.312195   0.437690   x 
            x  Ni          37         0.567720   0.562370   0.564031   x 
            x  Ni          38         0.695534   0.438387   0.563645   x 
            x  Ni          39         0.696812   0.563084   0.437364   x 
            x  Ni          40         0.819845   0.562648   0.563070   x 
            x  Ni          41         0.942521   0.436968   0.562972   x 
            x  Ni          42         0.942881   0.562304   0.437537   x 
            x  Ni          43         0.568379   0.807748   0.562041   x 
            x  Ni          44         0.694488   0.686418   0.562660   x 
            x  Ni          45         0.694212   0.811641   0.437004   x 
            x  Ni          46         0.818211   0.812761   0.562270   x 
            x  Ni          47         0.942984   0.687869   0.562853   x 
            x  Ni          48         0.942375   0.813162   0.437512   x 
            x  Ni          49         0.567941   0.062821   0.812301   x 
            x  Ni          50         0.692945   0.938155   0.812672   x 
            x  Ni          51         0.691199   0.062901   0.686296   x 
            x  Ni          52         0.816631   0.062981   0.812280   x 
            x  Ni          53         0.941964   0.938654   0.812384   x 
            x  Ni          54         0.941508   0.063035   0.687411   x 
            x  Ni          55         0.567504   0.312571   0.813904   x 
            x  Ni          56         0.691819   0.187424   0.812679   x 
            x  Ni          57         0.692993   0.312195   0.687293   x 
            x  Ni          58         0.817872   0.311345   0.812658   x 
            x  Ni          59         0.941916   0.187193   0.812348   x 
            x  Ni          60         0.942169   0.311766   0.687788   x 
            x  Ni          61         0.570016   0.561676   0.814383   x 
            x  Ni          62         0.695189   0.436736   0.814158   x 
            x  Ni          63         0.696592   0.562154   0.688823   x 
            x  Ni          64         0.819758   0.562146   0.813471   x 
            x  Ni          65         0.942872   0.436680   0.812758   x 
            x  Ni          66         0.942969   0.562298   0.688092   x 
            x  Ni          67         0.570504   0.811818   0.813343   x 
            x  Ni          68         0.696751   0.687503   0.814431   x 
            x  Ni          69         0.695246   0.812549   0.687469   x 
            x  Ni          70         0.818538   0.813772   0.813054   x 
            x  Ni          71         0.942909   0.688036   0.812754   x 
            x  Ni          72         0.942044   0.813478   0.687653   x 
            x  Ni          73         0.567860   0.062802   0.065630   x 
            x  Ni          74         0.692933   0.937606   0.063773   x 
            x  Ni          75         0.692004   0.062983   0.938332   x 
            x  Ni          76         0.817445   0.062758   0.062802   x 
            x  Ni          77         0.942432   0.938426   0.062355   x 
            x  Ni          78         0.941990   0.062916   0.937325   x 
            x  Ni          79         0.568569   0.313472   0.062988   x 
            x  Ni          80         0.692954   0.187533   0.063456   x 
            x  Ni          81         0.693600   0.311693   0.937936   x 
            x  Ni          82         0.818392   0.311635   0.062400   x 
            x  Ni          83         0.942323   0.187257   0.062389   x 
            x  Ni          84         0.942580   0.311596   0.937372   x 
            x  Ni          85         0.569071   0.563108   0.061812   x 
            x  Ni          86         0.695683   0.437464   0.061463   x 
            x  Ni          87         0.695467   0.562386   0.938119   x 
            x  Ni          88         0.819678   0.562769   0.062013   x 
            x  Ni          89         0.942935   0.436892   0.062090   x 
            x  Ni          90         0.943483   0.562360   0.937489   x 
            x  Ni          91         0.567969   0.811128   0.063521   x 
            x  Ni          92         0.694477   0.687815   0.062476   x 
            x  Ni          93         0.694203   0.813013   0.938569   x 
            x  Ni          94         0.818645   0.813342   0.062661   x 
            x  Ni          95         0.943460   0.688032   0.062149   x 
            x  Ni          96         0.942815   0.813711   0.937471   x 
            x  Ni          97         0.069531   0.059408   0.307288   x 
            x  Ni          98         0.191587   0.935366   0.308912   x 
            x  Ni          99         0.064135   0.933849   0.183188   x 
            x  Ni         100         0.311422   0.066091   0.312963   x 
            x  Ni         101         0.442376   0.935963   0.312863   x 
            x  Ni         102         0.316558   0.187350   0.186452   x 
            x  Ni         103         0.319871   0.934827   0.187525   x 
            x  Ni         104         0.063586   0.190084   0.179811   x 
            x  Ni         105         0.063382   0.317093   0.310499   x 
            x  Ni         106         0.314558   0.313716   0.306240   x 
            x  Ni         107         0.444169   0.191688   0.310219   x 
            x  Ni         108         0.445138   0.316553   0.188319   x 
            x  Ni         109         0.188644   0.316558   0.184338   x 
            x  Ni         110         0.065614   0.562912   0.310472   x 
            x  Ni         111         0.317246   0.441484   0.187587   x 
            x  Ni         112         0.190255   0.564615   0.182848   x 
            x  Ni         113         0.314941   0.564929   0.310808   x 
            x  Ni         114         0.318625   0.434244   0.434354   x 
            x  Ni         115         0.444971   0.562253   0.188660   x 
            x  Ni         116         0.065694   0.809240   0.308691   x 
            x  Ni         117         0.316278   0.689175   0.185410   x 
            x  Ni         118         0.066805   0.686706   0.180742   x 
            x  Ni         119         0.314564   0.808874   0.310449   x 
            x  Ni         120         0.443165   0.685274   0.312826   x 
            x  Ni         121         0.444593   0.811075   0.188875   x 
            x  Ni         122         0.193479   0.689388   0.053520   x 
            x  Ni         123         0.064940   0.059894   0.561933   x 
            x  Ni         124         0.193606   0.935742   0.563017   x 
            x  Ni         125         0.063322   0.932648   0.435972   x 
            x  Ni         126         0.447849   0.933511   0.559985   x 
            x  Ni         127         0.442844   0.063696   0.433549   x 
            x  Ni         128         0.319402   0.936014   0.435548   x 
            x  Ni         129         0.071098   0.312022   0.564337   x 
            x  Ni         130         0.196598   0.181310   0.555023   x 
            x  Ni         131         0.190919   0.310908   0.434622   x 
            x  Ni         132         0.065358   0.186816   0.435361   x 
            x  Ni         133         0.317439   0.309398   0.563269   x 
            x  Ni         134         0.566738   0.062358   0.559616   x 
            x  Ni         135         0.446250   0.191192   0.558793   x 
            x  Ni         136         0.067233   0.688813   0.437801   x 
            x  Ni         137         0.069736   0.442276   0.440948   x 
            x  Ni         138         0.316042   0.564397   0.563501   x 
            x  Ni         139         0.443794   0.562405   0.438321   x 
            x  Ni         140         0.191997   0.564976   0.437689   x 
            x  Ni         141         0.195505   0.692009   0.564912   x 
            x  Ni         142         0.191154   0.812609   0.435292   x 
            x  Ni         143         0.318222   0.812662   0.563434   x 
            x  Ni         144         0.443455   0.808187   0.437233   x 
            x  Ni         145         0.064889   0.937936   0.688697   x 
            x  Ni         146         0.450116   0.935307   0.811850   x 
            x  Ni         147         0.322998   0.938728   0.686250   x 
            x  Ni         148         0.066394   0.307386   0.813120   x 
            x  Ni         149         0.064396   0.184709   0.687813   x 
            x  Ni         150         0.198674   0.177091   0.816764   x 
            x  Ni         151         0.446102   0.187868   0.813229   x 
            x  Ni         152         0.445385   0.314015   0.686220   x 
            x  Ni         153         0.322742   0.182608   0.687197   x 
            x  Ni         154         0.065344   0.560622   0.810249   x 
            x  Ni         155         0.193361   0.431227   0.808310   x 
            x  Ni         156         0.192090   0.561332   0.688782   x 
            x  Ni         157         0.318547   0.560305   0.812069   x 
            x  Ni         158         0.445792   0.438078   0.811371   x 
            x  Ni         159         0.444264   0.560314   0.687797   x 
            x  Ni         160         0.316620   0.434157   0.687234   x 
            x  Ni         161         0.065601   0.814613   0.810954   x 
            x  Ni         162         0.191913   0.687840   0.814890   x 
            x  Ni         163         0.068768   0.690824   0.689982   x 
            x  Ni         164         0.321032   0.814981   0.814024   x 
            x  Ni         165         0.446041   0.686192   0.810816   x 
            x  Ni         166         0.445533   0.810840   0.688147   x 
            x  Ni         167         0.318561   0.687869   0.691003   x 
            x  Ni         168         0.065494   0.059871   0.059586   x 
            x  Ni         169         0.194751   0.931198   0.060251   x 
            x  Ni         170         0.194168   0.946076   0.811782   x 
            x  Ni         171         0.063523   0.937129   0.933314   x 
            x  Ni         172         0.320128   0.060523   0.063746   x 
            x  Ni         173         0.447371   0.936816   0.064568   x 
            x  Ni         174         0.447292   0.061464   0.939696   x 
            x  Ni         175         0.323714   0.937889   0.937679   x 
            x  Ni         176         0.066111   0.440426   0.182290   x 
            x  Ni         177         0.193471   0.187662   0.062365   x 
            x  Ni         178         0.199170   0.309374   0.934951   x 
            x  Ni         179         0.065585   0.186222   0.937110   x 
            x  Ni         180         0.441993   0.061821   0.190757   x 
            x  Ni         181         0.443533   0.313354   0.940414   x 
            x  Ni         182         0.445107   0.189013   0.068139   x 
            x  Ni         183         0.068053   0.561462   0.054588   x 
            x  Ni         184         0.194622   0.440852   0.058766   x 
            x  Ni         185         0.066453   0.436437   0.931831   x 
            x  Ni         186         0.445024   0.439651   0.063951   x 
            x  Ni         187         0.444614   0.562934   0.936875   x 
            x  Ni         188         0.320989   0.438192   0.937118   x 
            x  Ni         189         0.066515   0.811191   0.055163   x 
            x  Ni         190         0.320505   0.686650   0.935596   x 
            x  Ni         191         0.446081   0.685710   0.063162   x 
            x  Ni         192         0.446762   0.811047   0.936480   x 
            xxxxxxxxxxxxxxxxxxxxxxxxxxxxxxxxxxxxxxxxxxxxxxxxxxxxxxxxxxxx
 
 
                         No user defined ionic velocities
 
                           -------------------------------
                                   Details of Species
                           -------------------------------
 
                               Mass of species in AMU
                                    Al   26.9815400
                                    Ni   58.6934000
 
                          Electric Quadrupole Moment (Barn)
                                    Al    0.1466000 Isotope 27
                                    Ni    0.1620000 Isotope 61
 
                          Files used for pseudopotentials:
                                    Al 3|2.2|2.2|1.4|4|5|5|30:31:32U2U2
                                    Ni 3|2.4|2.4|1.0|8|9|10|40:41:32U2U2(qc=5.5)
 
                           -------------------------------
                              k-Points For BZ Sampling
                           -------------------------------
                       MP grid size for SCF calculation is  1  1  1
                            with an offset of   0.000  0.000  0.000
                       Number of kpoints used =             1
 
                           -------------------------------
                               Symmetry and Constraints
                           -------------------------------
 
                      Maximum deviation from symmetry =  0.00000         ANG
 
                      Number of symmetry operations   =           1
                      Number of ionic constraints     =           3
                      Point group of crystal =     1: C1, 1, 1
                      Space group of crystal =     1: P1, P 1
 
             Set iprint > 1 for details on symmetry rotations/translations
 
                         Centre of mass is constrained
             Set iprint > 1 for details of linear ionic constraints
 
                         Number of cell constraints= 6
                         Cell constraints are:  0 0 0 0 0 0
 
                         External pressure/stress (GPa)
                          0.00000   0.00000   0.00000
                                    0.00000   0.00000
                                              0.00000
  
+---------------- MEMORY AND SCRATCH DISK ESTIMATES PER PROCESS --------------+
|                                                     Memory          Disk    |
| Baseline code, static data and system overhead      622.0 MB         0.0 MB |
| BLAS internal memory storage                          0.0 MB         0.0 MB |
| Model and support data                              741.5 MB         0.0 MB |
| Electronic energy minimisation requirements         236.0 MB         0.0 MB |
| Force calculation requirements                        7.9 MB         0.0 MB |
|                                               ----------------------------- |
| Approx. total storage required per process         1599.5 MB         0.0 MB |
|                                                                             |
| Requirements will fluctuate during execution and may exceed these estimates |
+-----------------------------------------------------------------------------+
Calculating total energy with cut-off of  900.000 eV.
------------------------------------------------------------------------ <-- SCF
SCF loop      Energy           Fermi           Energy gain       Timer   <-- SCF
                               energy          per atom          (sec)   <-- SCF
------------------------------------------------------------------------ <-- SCF
Initial  -2.19129685E+005  0.00000000E+000                        20.16  <-- SCF
      1  -2.63694343E+005  7.10272062E+000   1.74763364E+002     107.72  <-- SCF
      2  -2.70654602E+005  3.63633763E+000   2.72951321E+001     193.50  <-- SCF
      3  -2.71371681E+005  3.53450877E+000   2.81207476E+000     282.54  <-- SCF
      4  -2.71426811E+005  3.64938540E+000   2.16196243E-001     366.87  <-- SCF
      5  -2.71711480E+005  6.62664965E+000   1.11635033E+000     468.54  <-- SCF
      6  -2.71508457E+005  5.53229022E+000  -7.96168499E-001     582.20  <-- SCF
      7  -2.71402602E+005  4.53278486E+000  -4.15119180E-001     684.65  <-- SCF
      8  -2.71386615E+005  4.41079625E+000  -6.26933599E-002     792.13  <-- SCF
      9  -2.71400107E+005  4.49212285E+000   5.29083399E-002     893.02  <-- SCF
     10  -2.71395400E+005  4.44230686E+000  -1.84602006E-002     995.36  <-- SCF
     11  -2.72253365E+005  6.17335138E+000   3.36457132E+000    1100.63  <-- SCF
     12  -2.72265895E+005  6.12646527E+000   4.91353543E-002    1195.10  <-- SCF
     13  -2.71473722E+005  4.78702121E+000  -3.10656089E+000    1327.53  <-- SCF
     14  -2.71547949E+005  4.80228961E+000   2.91085750E-001    1415.73  <-- SCF
     15  -2.71422373E+005  4.30617501E+000  -4.92454742E-001    1527.32  <-- SCF
     16  -2.71393940E+005  4.21582741E+000  -1.11500092E-001    1626.36  <-- SCF
     17  -2.71390351E+005  4.27866512E+000  -1.40760090E-002    1723.52  <-- SCF
     18  -2.71388453E+005  4.34938454E+000  -7.44084792E-003    1822.18  <-- SCF
     19  -2.71386825E+005  4.37015156E+000  -6.38380787E-003    1920.44  <-- SCF
     20  -2.71385993E+005  4.36222806E+000  -3.26423697E-003    2016.94  <-- SCF
     21  -2.71385751E+005  4.35139258E+000  -9.49279150E-004    2114.16  <-- SCF
     22  -2.71385639E+005  4.34819587E+000  -4.39137389E-004    2211.65  <-- SCF
     23  -2.71385544E+005  4.35720159E+000  -3.70740766E-004    2309.46  <-- SCF
     24  -2.71385471E+005  4.36232022E+000  -2.89052949E-004    2404.54  <-- SCF
     25  -2.71385423E+005  4.36498576E+000  -1.88970608E-004    2506.31  <-- SCF
     26  -2.71385302E+005  4.37054614E+000  -4.72059946E-004    2603.39  <-- SCF
     27  -2.71385273E+005  4.37226368E+000  -1.14050231E-004    2703.78  <-- SCF
     28  -2.71385259E+005  4.37477165E+000  -5.53877551E-005    2800.81  <-- SCF
     29  -2.71385242E+005  4.37747326E+000  -6.50053008E-005    2900.14  <-- SCF
     30  -2.71385242E+005  4.37759729E+000  -1.52824209E-006    2978.01  <-- SCF
     31  -2.71385242E+005  4.37808860E+000   1.17437557E-006    3051.21  <-- SCF
     32  -2.71385241E+005  4.37849963E+000  -3.73467377E-006    3118.42  <-- SCF
     33  -2.71385241E+005  4.37853972E+000  -5.60327973E-008    3186.38  <-- SCF
     34  -2.71385241E+005  4.37857800E+000   3.66765298E-007    3255.36  <-- SCF
------------------------------------------------------------------------ <-- SCF
 
Integrated Spin Density     =    0.138601     hbar/2                        
Integrated |Spin Density|   =    0.214565     hbar/2                        
 
Final energy, E             =  -271380.6875620     eV
Final free energy (E-TS)    =  -271385.2414367     eV
(energies not corrected for finite basis set)
 
NB est. 0K energy (E-0.5TS)      =  -271382.9644994     eV
 

Writing analysis data to castep.castep_bin

Writing model to castep.check
 
+---------------- MEMORY AND SCRATCH DISK ESTIMATES PER PROCESS --------------+
|                                                     Memory          Disk    |
| Model and support data                              750.6 MB         0.0 MB |
| Electronic energy minimisation requirements         236.0 MB         0.0 MB |
| Geometry minimisation requirements                  309.4 MB         0.0 MB |
|                                               ----------------------------- |
| Approx. total storage required per process         1296.0 MB         0.0 MB |
|                                                                             |
| Requirements will fluctuate during execution and may exceed these estimates |
+-----------------------------------------------------------------------------+
 
 
 ************************************** Forces **************************************
 *                                                                                  *
 *                           Cartesian components (eV/A)                            *
 * -------------------------------------------------------------------------------- *
 *                         x                    y                    z              *
 *                                                                                  *
 * Al              1     -0.11241              0.00217             -0.02286         *
 * Al              2      0.03410             -0.03685             -0.01054         *
 * Al              3     -0.06257             -0.01063             -0.02418         *
 * Al              4      0.05857              0.00229              0.01224         *
 * Al              5     -0.12401             -0.03494             -0.10434         *
 * Al              6      0.10207              0.01788              0.01016         *
 * Al              7     -0.15397              0.04534             -0.02782         *
 * Al              8      0.06337              0.01824             -0.02555         *
 * Al              9     -0.04563             -0.00584              0.00127         *
 * Al             10      0.03978              0.01666             -0.02405         *
 * Al             11     -0.15097              0.00952             -0.01219         *
 * Al             12      0.10800             -0.00206             -0.01643         *
 * Al             13      0.30798              0.02042             -0.00900         *
 * Al             14      0.05918             -0.03906             -0.03716         *
 * Al             15     -0.00299              0.03995             -0.12463         *
 * Al             16      0.07948              0.01687             -0.02625         *
 * Al             17     -0.16643             -0.02506              0.00474         *
 * Al             18      0.05118              0.01265              0.00213         *
 * Al             19     -0.10545             -0.02125              0.04398         *
 * Al             20      0.06782              0.01574             -0.01598         *
 * Al             21     -0.06519             -0.01150              0.09552         *
 * Al             22      0.10994             -0.01301             -0.00468         *
 * Al             23      0.02138              0.02414              0.13657         *
 * Al             24      0.02591             -0.00533             -0.01467         *
 * Al             25     -0.11411             -0.06532             -0.00752         *
 * Al             26     -0.00071             -0.02022              0.01120         *
 * Al             27     -0.11876              0.01052              0.01023         *
 * Al             28      0.06780              0.02908             -0.00660         *
 * Al             29     -0.15292              0.05067              0.01397         *
 * Al             30      0.04369             -0.00608              0.01282         *
 * Al             31     -0.18016              0.01670              0.01366         *
 * Al             32      0.08883             -0.02879              0.03089         *
 * Al             33      0.13332              0.10829              0.11865         *
 * Al             34      0.28616              0.19192              0.28159         *
 * Al             35     -0.03210             -0.00203             -0.08331         *
 * Al             36      0.15655              0.05439              0.20317         *
 * Al             37     -0.04418             -0.29161             -0.05692         *
 * Al             38      0.05079              0.07414              0.16483         *
 * Al             39     -0.51445             -0.29374              0.55143         *
 * Al             40      0.13706             -0.19348             -0.02910         *
 * Al             41     -0.75251             -0.01987              0.60690         *
 * Al             42      0.19707              0.29471             -0.05848         *
 * Al             43     -0.00420             -0.13278             -0.11188         *
 * Al             44      0.14508             -0.19743             -0.18837         *
 * Al             45     -0.04674              0.01460              0.17424         *
 * Al             46     -0.15845              0.07418             -0.11994         *
 * Al             47     -0.65408             -0.08175              0.02759         *
 * Al             48     -0.24220             -0.05543             -0.02150         *
 * Al             49      0.00875              0.20067              0.16813         *
 * Al             50     -0.31419              0.05603             -0.05733         *
 * Al             51     -0.53870             -0.07063             -0.66544         *
 * Al             52     -0.07438             -0.09776              0.13010         *
 * Al             53     -0.60270             -0.00887             -0.64858         *
 * Al             54      0.09035             -0.08015             -0.19048         *
 * Al             55      0.08831              0.38852              0.00468         *
 * Al             56      0.28686             -0.08321             -0.01797         *
 * Al             57     -0.26421             -0.20467             -0.10483         *
 * Al             58     -0.10040              0.02663              0.13566         *
 * Al             59      0.02222             -0.08338             -0.22710         *
 * Al             60     -0.19411             -0.03237             -0.11506         *
 * Al             61      0.00802              0.02827             -0.00640         *
 * Al             62     -0.16260             -0.01961              0.25905         *
 * Al             63     -0.14186              0.17320             -0.09399         *
 * Ni              1      0.00523              0.05523             -0.06826         *
 * Ni              2      0.00969             -0.01392              0.00432         *
 * Ni              3      0.03537              0.01863             -0.00504         *
 * Ni              4      0.09650             -0.00978             -0.01534         *
 * Ni              5      0.15869             -0.07630             -0.06570         *
 * Ni              6      0.09153              0.02416             -0.08274         *
 * Ni              7      0.16538              0.12413              0.02649         *
 * Ni              8      0.04339             -0.01542              0.01737         *
 * Ni              9      0.04652              0.01440             -0.03500         *
 * Ni             10      0.02461              0.00818              0.02864         *
 * Ni             11      0.29289             -0.06361             -0.08643         *
 * Ni             12      0.11751              0.13367             -0.08058         *
 * Ni             13      0.11552             -0.11453              0.17611         *
 * Ni             14     -0.06742             -0.01005              0.02258         *
 * Ni             15     -0.07531             -0.03106              0.02702         *
 * Ni             16     -0.01721              0.01219             -0.01770         *
 * Ni             17      0.11004              0.16425              0.02033         *
 * Ni             18      0.11858              0.00109             -0.15058         *
 * Ni             19      0.00934             -0.02195              0.09640         *
 * Ni             20      0.05715              0.00442              0.00349         *
 * Ni             21     -0.00178             -0.00405             -0.00896         *
 * Ni             22      0.02153              0.00459             -0.02011         *
 * Ni             23      0.19970             -0.02410             -0.04389         *
 * Ni             24      0.05950             -0.16450             -0.12911         *
 * Ni             25      0.14544             -0.01476              0.05051         *
 * Ni             26      0.10650              0.04725              0.00491         *
 * Ni             27      0.04250             -0.02328             -0.00744         *
 * Ni             28      0.03030              0.02164             -0.04775         *
 * Ni             29      0.12754              0.05278              0.00127         *
 * Ni             30      0.19383             -0.09284             -0.11715         *
 * Ni             31      0.21101              0.21158             -0.05099         *
 * Ni             32      0.03437             -0.03173             -0.00594         *
 * Ni             33     -0.14598              0.03930             -0.00291         *
 * Ni             34     -0.00339             -0.06455             -0.02531         *
 * Ni             35      0.19820             -0.00941              0.00233         *
 * Ni             36      0.25265              0.11213              0.07047         *
 * Ni             37      0.22183             -0.00711             -0.06465         *
 * Ni             38      0.02266             -0.02892             -0.01828         *
 * Ni             39     -0.08292              0.00454              0.01810         *
 * Ni             40     -0.01201             -0.03501             -0.02185         *
 * Ni             41      0.40130              0.01730             -0.03386         *
 * Ni             42      0.23307              0.06876             -0.05075         *
 * Ni             43      0.10566             -0.13391              0.00090         *
 * Ni             44      0.09912             -0.00174             -0.00704         *
 * Ni             45     -0.03054             -0.01686              0.02326         *
 * Ni             46      0.01823              0.06525             -0.00846         *
 * Ni             47     -0.06465              0.12459              0.09849         *
 * Ni             48     -0.01076             -0.16139             -0.10348         *
 * Ni             49      0.14260             -0.05159              0.05932         *
 * Ni             50      0.03598             -0.02353              0.00044         *
 * Ni             51      0.04445              0.00454              0.00093         *
 * Ni             52      0.06829             -0.00986              0.00623         *
 * Ni             53     -0.06031             -0.24300             -0.07958         *
 * Ni             54     -0.12356             -0.05908             -0.21253         *
 * Ni             55      0.12417              0.05769             -0.11701         *
 * Ni             56      0.02831              0.03019             -0.01578         *
 * Ni             57      0.02416              0.00841              0.02929         *
 * Ni             58     -0.01980              0.02745             -0.02683         *
 * Ni             59     -0.05460              0.18202             -0.00440         *
 * Ni             60      0.10376             -0.14649             -0.03897         *
 * Ni             61      0.09394              0.05271             -0.15282         *
 * Ni             62      0.00302             -0.01509              0.00343         *
 * Ni             63     -0.10127             -0.00901             -0.04277         *
 * Ni             64     -0.03510              0.01262              0.01552         *
 * Ni             65      0.01007             -0.10232              0.08161         *
 * Ni             66      0.14993              0.02694             -0.04403         *
 * Ni             67      0.09788             -0.06800             -0.11169         *
 * Ni             68      0.00670              0.00058             -0.00304         *
 * Ni             69     -0.03470             -0.02027             -0.02144         *
 * Ni             70     -0.00093             -0.03354             -0.00351         *
 * Ni             71     -0.20700              0.02409             -0.48817         *
 * Ni             72     -0.04323             -0.05574              0.11015         *
 * Ni             73      0.11324              0.00711              0.04505         *
 * Ni             74      0.03463              0.00267             -0.00141         *
 * Ni             75      0.05038             -0.00539              0.00143         *
 * Ni             76     -0.00028             -0.02721              0.04516         *
 * Ni             77      0.06968             -0.09762             -0.12124         *
 * Ni             78     -0.15158             -0.00015              0.18544         *
 * Ni             79      0.12611             -0.05719              0.11515         *
 * Ni             80      0.02844              0.02837              0.01705         *
 * Ni             81      0.00534              0.02511             -0.00273         *
 * Ni             82     -0.00233             -0.01113             -0.00634         *
 * Ni             83      0.00281             -0.05229             -0.17001         *
 * Ni             84     -0.05540             -0.01585             -0.15022         *
 * Ni             85      0.13575             -0.00820              0.04094         *
 * Ni             86      0.00206              0.00162             -0.00335         *
 * Ni             87     -0.01366             -0.01496             -0.00155         *
 * Ni             88     -0.05559              0.02491              0.02283         *
 * Ni             89      0.10269              0.13934             -0.17519         *
 * Ni             90     -0.24233             -0.35409             -0.15197         *
 * Ni             91      0.13815              0.05716             -0.01100         *
 * Ni             92      0.01723             -0.03471              0.01118         *
 * Ni             93     -0.00389             -0.00422             -0.02586         *
 * Ni             94      0.01303              0.01655              0.01656         *
 * Ni             95     -0.10055             -0.09052              0.09697         *
 * Ni             96     -0.32711              0.23204             -0.12236         *
 * Ni             97     -0.16862              0.35257              0.12158         *
 * Ni             98      0.02733             -0.14481              0.17930         *
 * Ni             99      0.05160              0.30844              0.16594         *
 * Ni            100      0.08909              0.05348              0.17326         *
 * Ni            101     -0.22552              0.00605             -0.03347         *
 * Ni            102      0.03891             -0.09945              0.16319         *
 * Ni            103      0.08877             -0.03292              0.01479         *
 * Ni            104      0.20818             -0.28044              0.48856         *
 * Ni            105      0.06562             -0.20389              0.09301         *
 * Ni            106      0.22222             -0.21393              0.02442         *
 * Ni            107     -0.11835             -0.09881             -0.21777         *
 * Ni            108     -0.06688             -0.03944              0.18683         *
 * Ni            109      0.05023             -0.01154             -0.00403         *
 * Ni            110     -0.13887             -0.14798              0.15068         *
 * Ni            111     -0.21191             -0.00270             -0.09949         *
 * Ni            112      0.02471             -0.13429             -0.04611         *
 * Ni            113      0.29608              0.13855              0.05578         *
 * Ni            114     -0.33903              0.09355              0.00014         *
 * Ni            115     -0.08445              0.03786              0.12040         *
 * Ni            116      0.10365              0.26015              0.17349         *
 * Ni            117      0.06518              0.04393              0.12340         *
 * Ni            118      0.12383              0.02360              0.13079         *
 * Ni            119      0.16501              0.09278              0.02856         *
 * Ni            120     -0.03850              0.04735             -0.27214         *
 * Ni            121     -0.10218             -0.09022              0.24808         *
 * Ni            122     -0.17394             -0.04626              0.14740         *
 * Ni            123     -0.02781              0.17191             -0.14853         *
 * Ni            124      0.08569              0.04060             -0.04310         *
 * Ni            125      0.17586              0.28257             -0.07940         *
 * Ni            126     -0.24074             -0.12735              0.11037         *
 * Ni            127     -0.09914              0.04192             -0.09891         *
 * Ni            128     -0.20412             -0.06500             -0.02511         *
 * Ni            129      0.01790              0.16157             -0.13937         *
 * Ni            130     -0.00276             -0.22898             -0.10432         *
 * Ni            131      0.03181             -0.02527              0.06848         *
 * Ni            132      0.18155             -0.04147              0.04108         *
 * Ni            133      0.08152             -0.06565              0.06812         *
 * Ni            134      0.12539              0.06517             -0.08984         *
 * Ni            135     -0.18874             -0.01812              0.36075         *
 * Ni            136     -0.16933              0.06808             -0.13462         *
 * Ni            137     -0.36853             -0.33423             -0.01508         *
 * Ni            138      0.14381              0.09070              0.00671         *
 * Ni            139     -0.13320             -0.12476             -0.08710         *
 * Ni            140      0.10389             -0.01011             -0.01451         *
 * Ni            141     -0.12510              0.06939              0.20754         *
 * Ni            142      0.16453              0.01319             -0.11672         *
 * Ni            143      0.31423              0.14836             -0.24353         *
 * Ni            144     -0.09097             -0.03595              0.05280         *
 * Ni            145      0.15960              0.05044             -0.11455         *
 * Ni            146     -0.31969             -0.11073              0.10982         *
 * Ni            147      0.00226             -0.01051              0.08443         *
 * Ni            148      0.25438              0.09952             -0.03969         *
 * Ni            149      0.16899             -0.05714             -0.16879         *
 * Ni            150     -0.00039             -0.10616              0.23882         *
 * Ni            151     -0.33381             -0.03944              0.01234         *
 * Ni            152      0.01033             -0.05544             -0.21523         *
 * Ni            153      0.02102              0.14610             -0.15138         *
 * Ni            154      0.17761              0.23959              0.03874         *
 * Ni            155      0.00685             -0.11637              0.04754         *
 * Ni            156     -0.04782             -0.14175             -0.27865         *
 * Ni            157      0.24978              0.06486             -0.22548         *
 * Ni            158     -0.19020              0.11985              0.23724         *
 * Ni            159     -0.15676             -0.01166              0.12980         *
 * Ni            160     -0.19772              0.20815              0.24734         *
 * Ni            161     -0.04853              0.08197              0.11366         *
 * Ni            162     -0.00658             -0.12713              0.09506         *
 * Ni            163     -0.00838              0.09153              0.24865         *
 * Ni            164      0.29390             -0.12325             -0.06180         *
 * Ni            165     -0.31373              0.05454              0.16424         *
 * Ni            166     -0.11011             -0.00869             -0.01140         *
 * Ni            167     -0.06766             -0.13629              0.11994         *
 * Ni            168     -0.19295              0.16661              0.24491         *
 * Ni            169     -0.02066             -0.12795             -0.04615         *
 * Ni            170      0.04534              0.29939             -0.02601         *
 * Ni            171      0.26379              0.12295              0.30292         *
 * Ni            172      0.27526             -0.15950              0.02019         *
 * Ni            173     -0.28897              0.27742             -0.07664         *
 * Ni            174     -0.06961              0.00417              0.09710         *
 * Ni            175      0.02265             -0.05114             -0.00276         *
 * Ni            176      0.04532             -0.06703              0.24294         *
 * Ni            177      0.07110             -0.02949             -0.18101         *
 * Ni            178      0.08314              0.08375             -0.23512         *
 * Ni            179      0.33076             -0.08722              0.03253         *
 * Ni            180     -0.05074              0.05248             -0.11344         *
 * Ni            181     -0.10321             -0.08359             -0.00165         *
 * Ni            182     -0.17233             -0.16950             -0.12520         *
 * Ni            183      0.04450              0.11704              0.35265         *
 * Ni            184     -0.13835              0.15406              0.01104         *
 * Ni            185      0.16103             -0.04607              0.01052         *
 * Ni            186     -0.01511             -0.08350             -0.16261         *
 * Ni            187     -0.07036             -0.10015             -0.18416         *
 * Ni            188      0.05343              0.19306             -0.07379         *
 * Ni            189     -0.08354              0.11563              0.27570         *
 * Ni            190      0.12604             -0.02129             -0.21258         *
 * Ni            191     -0.05648              0.03632             -0.10833         *
 * Ni            192      0.07683              0.03343             -0.18481         *
 *                                                                                  *
 ************************************************************************************
 LBFGS: finished iteration     0 with enthalpy= -2.71385241E+005 eV
  
 +-----------+-----------------+-----------------+------------+-----+ <-- LBFGS
 | Parameter |      value      |    tolerance    |    units   | OK? | <-- LBFGS
 +-----------+-----------------+-----------------+------------+-----+ <-- LBFGS
 |  dE/ion   |   0.000000E+000 |   2.000000E-005 |         eV | No  | <-- LBFGS
 |  |F|max   |   9.669550E-001 |   5.000000E-002 |       eV/A | No  | <-- LBFGS
 |  |dR|max  |   0.000000E+000 |   1.000000E-003 |          A | No  | <-- LBFGS
 +-----------+-----------------+-----------------+------------+-----+ <-- LBFGS
  

================================================================================
 Starting LBFGS iteration          1 ...
================================================================================
  
 +------------+-------------+-------------+-----------------+ <-- min LBFGS
 |    Step    |   lambda    |   F.delta'  |    enthalpy     | <-- min LBFGS
 +------------+-------------+-------------+-----------------+ <-- min LBFGS
 |  previous  |    0.000000 |    2.063660 |  -271385.241437 | <-- min LBFGS
 +------------+-------------+-------------+-----------------+ <-- min LBFGS
  

--------------------------------------------------------------------------------
 LBFGS: starting iteration         1 with trial guess (lambda=  1.000000)
--------------------------------------------------------------------------------
 
                           -------------------------------
                                     Cell Contents
                           -------------------------------
 
            xxxxxxxxxxxxxxxxxxxxxxxxxxxxxxxxxxxxxxxxxxxxxxxxxxxxxxxxxxxxxxxxx
            x  Element         Atom        Fractional coordinates of atoms  x
            x                 Number           u          v          w      x
            x---------------------------------------------------------------x
            x  Al                1         0.570106   0.937025   0.189315   x
            x  Al                2         0.817913   0.937981   0.187733   x
            x  Al                3         0.570235   0.188729   0.189316   x
            x  Al                4         0.817714   0.187454   0.187820   x
            x  Al                5         0.575199   0.438794   0.184220   x
            x  Al                6         0.819278   0.437163   0.186660   x
            x  Al                7         0.571283   0.686466   0.188535   x
            x  Al                8         0.819444   0.688048   0.186818   x
            x  Al                9         0.569109   0.935911   0.435756   x
            x  Al               10         0.817373   0.937959   0.437506   x
            x  Al               11         0.567813   0.190571   0.435200   x
            x  Al               12         0.817182   0.187635   0.437581   x
            x  Al               13         0.577649   0.440032   0.437681   x
            x  Al               14         0.819055   0.437299   0.437656   x
            x  Al               15         0.573504   0.685237   0.433520   x
            x  Al               16         0.819382   0.687744   0.437400   x
            x  Al               17         0.571865   0.935679   0.685990   x
            x  Al               18         0.816652   0.938529   0.687041   x
            x  Al               19         0.569681   0.189059   0.686128   x
            x  Al               20         0.816274   0.187185   0.687129   x
            x  Al               21         0.574566   0.438104   0.690564   x
            x  Al               22         0.818828   0.436698   0.688349   x
            x  Al               23         0.576501   0.686169   0.692708   x
            x  Al               24         0.819122   0.687857   0.688013   x
            x  Al               25         0.571359   0.937303   0.939005   x
            x  Al               26         0.817189   0.938563   0.937857   x
            x  Al               27         0.569190   0.187822   0.939598   x
            x  Al               28         0.817237   0.186932   0.937597   x
            x  Al               29         0.570700   0.437462   0.938239   x
            x  Al               30         0.819238   0.436649   0.937638   x
            x  Al               31         0.571790   0.687018   0.937181   x
            x  Al               32         0.819484   0.688209   0.938150   x
            x  Al               33         0.328833   0.810896   0.059933   x
            x  Al               34         0.056555   0.686366   0.932107   x
            x  Al               35         0.193138   0.818343   0.929778   x
            x  Al               36         0.321872   0.563778   0.064230   x
            x  Al               37         0.193036   0.558410   0.929012   x
            x  Al               38         0.317987   0.319386   0.068568   x
            x  Al               39         0.073612   0.317171   0.053313   x
            x  Al               40         0.198507   0.816739   0.696314   x
            x  Al               41         0.066831   0.434199   0.689871   x
            x  Al               42         0.325527   0.313403   0.812950   x
            x  Al               43         0.193154   0.295984   0.687653   x
            x  Al               44         0.331158   0.057075   0.809541   x
            x  Al               45         0.327591   0.184592   0.945049   x
            x  Al               46         0.190760   0.062260   0.680743   x
            x  Al               47         0.063196   0.064019   0.812913   x
            x  Al               48         0.318005   0.688428   0.436377   x
            x  Al               49         0.440337   0.685230   0.568679   x
            x  Al               50         0.186615   0.682295   0.309954   x
            x  Al               51         0.068395   0.813267   0.565325   x
            x  Al               52         0.434153   0.437179   0.559675   x
            x  Al               53         0.070888   0.573603   0.566061   x
            x  Al               54         0.201099   0.436419   0.555999   x
            x  Al               55         0.329790   0.199800   0.432964   x
            x  Al               56         0.330169   0.057955   0.561168   x
            x  Al               57         0.185502   0.053896   0.436104   x
            x  Al               58         0.187396   0.814626   0.182616   x
            x  Al               59         0.435151   0.437986   0.314593   x
            x  Al               60         0.191073   0.439970   0.311835   x
            x  Al               61         0.191232   0.055243   0.179979   x
            x  Al               62         0.192125   0.055933   0.946795   x
            x  Al               63         0.184565   0.195012   0.305665   x
            x  Ni                1         0.567687   0.062218   0.312289   x
            x  Ni                2         0.693703   0.937293   0.312808   x
            x  Ni                3         0.693499   0.062804   0.188523   x
            x  Ni                4         0.817425   0.063089   0.312947   x
            x  Ni                5         0.942051   0.938222   0.312570   x
            x  Ni                6         0.942113   0.062951   0.187531   x
            x  Ni                7         0.566040   0.317982   0.314037   x
            x  Ni                8         0.692392   0.188716   0.312748   x
            x  Ni                9         0.694164   0.312492   0.187885   x
            x  Ni               10         0.818694   0.312146   0.312442   x
            x  Ni               11         0.942293   0.187497   0.312553   x
            x  Ni               12         0.942620   0.312026   0.187171   x
            x  Ni               13         0.568668   0.559589   0.311137   x
            x  Ni               14         0.696582   0.438071   0.311332   x
            x  Ni               15         0.696017   0.563109   0.186499   x
            x  Ni               16         0.820034   0.562703   0.311816   x
            x  Ni               17         0.942648   0.437084   0.312199   x
            x  Ni               18         0.943199   0.562346   0.186836   x
            x  Ni               19         0.568403   0.811552   0.312059   x
            x  Ni               20         0.695424   0.686771   0.311402   x
            x  Ni               21         0.694011   0.812322   0.187571   x
            x  Ni               22         0.818613   0.812771   0.312272   x
            x  Ni               23         0.943027   0.687852   0.312175   x
            x  Ni               24         0.942789   0.813310   0.187260   x
            x  Ni               25         0.449351   0.061626   0.685183   x
            x  Ni               26         0.691924   0.936834   0.560972   x
            x  Ni               27         0.691728   0.063247   0.436936   x
            x  Ni               28         0.816354   0.063011   0.562047   x
            x  Ni               29         0.941684   0.938343   0.562609   x
            x  Ni               30         0.941822   0.062970   0.437671   x
            x  Ni               31         0.565389   0.317351   0.559796   x
            x  Ni               32         0.690903   0.188525   0.561314   x
            x  Ni               33         0.694090   0.312831   0.437298   x
            x  Ni               34         0.817916   0.312000   0.562720   x
            x  Ni               35         0.941851   0.187434   0.562707   x
            x  Ni               36         0.942375   0.312210   0.437699   x
            x  Ni               37         0.567749   0.562369   0.564022   x
            x  Ni               38         0.695537   0.438384   0.563643   x
            x  Ni               39         0.696801   0.563085   0.437366   x
            x  Ni               40         0.819843   0.562643   0.563067   x
            x  Ni               41         0.942574   0.436970   0.562967   x
            x  Ni               42         0.942912   0.562314   0.437531   x
            x  Ni               43         0.568393   0.807730   0.562041   x
            x  Ni               44         0.694501   0.686417   0.562659   x
            x  Ni               45         0.694208   0.811639   0.437007   x
            x  Ni               46         0.818214   0.812769   0.562269   x
            x  Ni               47         0.942975   0.687886   0.562866   x
            x  Ni               48         0.942373   0.813140   0.437498   x
            x  Ni               49         0.567960   0.062814   0.812309   x
            x  Ni               50         0.692949   0.938152   0.812672   x
            x  Ni               51         0.691204   0.062901   0.686297   x
            x  Ni               52         0.816640   0.062980   0.812281   x
            x  Ni               53         0.941956   0.938622   0.812373   x
            x  Ni               54         0.941491   0.063027   0.687383   x
            x  Ni               55         0.567521   0.312579   0.813888   x
            x  Ni               56         0.691822   0.187428   0.812677   x
            x  Ni               57         0.692996   0.312196   0.687297   x
            x  Ni               58         0.817870   0.311349   0.812654   x
            x  Ni               59         0.941909   0.187217   0.812347   x
            x  Ni               60         0.942183   0.311746   0.687783   x
            x  Ni               61         0.570028   0.561683   0.814362   x
            x  Ni               62         0.695190   0.436734   0.814159   x
            x  Ni               63         0.696578   0.562153   0.688817   x
            x  Ni               64         0.819753   0.562147   0.813473   x
            x  Ni               65         0.942873   0.436667   0.812768   x
            x  Ni               66         0.942989   0.562302   0.688086   x
            x  Ni               67         0.570517   0.811809   0.813328   x
            x  Ni               68         0.696751   0.687503   0.814431   x
            x  Ni               69         0.695241   0.812546   0.687467   x
            x  Ni               70         0.818538   0.813768   0.813053   x
            x  Ni               71         0.942881   0.688039   0.812689   x
            x  Ni               72         0.942039   0.813471   0.687668   x
            x  Ni               73         0.567875   0.062802   0.065636   x
            x  Ni               74         0.692938   0.937606   0.063773   x
            x  Ni               75         0.692010   0.062982   0.938332   x
            x  Ni               76         0.817445   0.062754   0.062808   x
            x  Ni               77         0.942442   0.938413   0.062339   x
            x  Ni               78         0.941970   0.062916   0.937350   x
            x  Ni               79         0.568586   0.313464   0.063003   x
            x  Ni               80         0.692958   0.187537   0.063458   x
            x  Ni               81         0.693601   0.311696   0.937935   x
            x  Ni               82         0.818391   0.311633   0.062399   x
            x  Ni               83         0.942323   0.187250   0.062366   x
            x  Ni               84         0.942573   0.311594   0.937352   x
            x  Ni               85         0.569089   0.563107   0.061817   x
            x  Ni               86         0.695683   0.437464   0.061463   x
            x  Ni               87         0.695465   0.562384   0.938119   x
            x  Ni               88         0.819671   0.562773   0.062016   x
            x  Ni               89         0.942948   0.436910   0.062066   x
            x  Ni               90         0.943450   0.562313   0.937469   x
            x  Ni               91         0.567988   0.811136   0.063520   x
[...]
            Ni 25  -- Ni 135                -0.03        -0.00          2.58705
             Al 51 -- Ni 142                 0.18        -0.00          2.58706
             Al 25 -- Ni 73                  0.20         0.00          2.58714
             Al 15 -- Ni 144                 0.18         0.00          2.58716
             Al 52 -- Ni 31                  0.24         0.00          2.58729
            Ni 98  -- Ni 99                  0.00         0.00          2.58744
            Ni 37  -- Ni 38                  0.07        -0.00          2.58748
             Al 17 -- Ni 43                  0.20        -0.00          2.58752
            Ni 155 -- Ni 156                 0.07        -0.00          2.58759
             Al 36 -- Ni 188                 0.19        -0.00          2.58771
             Al 23 -- Ni 165                 0.19        -0.00          2.58784
            Ni 159 -- Ni 167                 0.10         0.00          2.58784
             Al 33 -- Ni 169                 0.19        -0.00          2.58788
            Ni 151 -- Ni 174                -0.05        -0.00          2.58819
            Ni 116 -- Ni 118                 0.02         0.00          2.58820
            Ni 103 -- Ni 169                -0.02         0.00          2.58830
            Ni 12  -- Ni 89                  0.03         0.00          2.58865
            Ni 114 -- Ni 140                -0.01         0.00          2.58871
            Ni 138 -- Ni 160                 0.06         0.00          2.58874
             Al 21 -- Ni 159                 0.17        -0.00          2.58876
            Ni 31  -- Ni 57                 -0.01        -0.00          2.58883
            Ni 29  -- Ni 72                  0.01         0.00          2.58891
            Ni 1   -- Ni 101                 0.04         0.00          2.58900
            Ni 35  -- Ni 129                 0.11        -0.00          2.58902
            Ni 25  -- Ni 153                 0.10         0.00          2.58941
             Al 49 -- Ni 37                  0.18        -0.00          2.58955
            Ni 129 -- Ni 132                 0.13        -0.00          2.58958
             Al 7  -- Ni 13                  0.20        -0.00          2.58989
            Ni 183 -- Ni 185                 0.07         0.00          2.58990
            Ni 90  -- Ni 95                  0.01        -0.00          2.59003
             Al 5  -- Ni 115                 0.17         0.00          2.59015
             Al 15 -- Ni 37                  0.20        -0.00          2.59045
             Al 22 -- Ni 62                  0.20         0.00          2.59047
             Al 48 -- Ni 141                 0.18         0.00          2.59047
            Ni 142 -- Ni 143                 0.05         0.00          2.59065
             Al 40 -- Ni 124                 0.19        -0.00          2.59080
             Al 48 -- Ni 120                 0.20         0.00          2.59089
            Ni 13  -- Ni 39                  0.02         0.00          2.59136
            Ni 7   -- Ni 9                  -0.01        -0.00          2.59146
            Ni 100 -- Ni 107                 0.04         0.00          2.59158
            Ni 112 -- Ni 113                 0.02         0.00          2.59176
            Ni 49  -- Ni 151                 0.07        -0.00          2.59181
            Ni 67  -- Ni 165                 0.03        -0.00          2.59181
            Ni 25  -- Ni 146                -0.01        -0.00          2.59199
             Al 19 -- Ni 151                 0.20         0.00          2.59200
            Ni 55  -- Ni 181                 0.07        -0.00          2.59227
            Ni 104 -- Ni 105                 0.05         0.00          2.59249
            Ni 7   -- Ni 107                 0.13         0.00          2.59267
             Al 11 -- Ni 1                   0.18        -0.00          2.59308
            Ni 126 -- Ni 134                 0.04         0.00          2.59310
            Ni 110 -- Ni 112                 0.05         0.00          2.59337
            Ni 150 -- Ni 178                 0.08        -0.00          2.59348
             Al 60 -- Ni 106                 0.18         0.00          2.59358
             Al 15 -- Ni 44                  0.20         0.00          2.59369
            Ni 128 -- Ni 144                 0.14         0.00          2.59375
             Al 36 -- Ni 190                 0.17        -0.00          2.59384
            Ni 71  -- Ni 96                  0.01        -0.00          2.59426
             Al 51 -- Ni 124                 0.20         0.00          2.59436
             Al 16 -- Ni 40                  0.19         0.00          2.59454
             Al 38 -- Ni 188                 0.17        -0.00          2.59486
            Ni 121 -- Ni 191                 0.00         0.00          2.59521
             Al 60 -- Ni 113                 0.18         0.00          2.59534
            Ni 127 -- Ni 128                 0.09         0.00          2.59566
             Al 45 -- Ni 150                 0.16        -0.00          2.59569
             Al 14 -- Ni 16                  0.19         0.00          2.59592
             Al 24 -- Ni 46                  0.19        -0.00          2.59640
             Al 23 -- Ni 37                  0.20        -0.00          2.59652
             Al 43 -- Ni 150                 0.18         0.00          2.59698
             Al 34 -- Ni 162                 0.16         0.00          2.59720
            Ni 99  -- Ni 169                 0.01         0.00          2.59790
             Al 48 -- Ni 139                 0.19        -0.00          2.59836
            Ni 101 -- Ni 144                 0.10        -0.00          2.59836
             Al 40 -- Ni 145                 0.17         0.00          2.59854
            Ni 68  -- Ni 69                  0.02        -0.00          2.59884
            Ni 111 -- Ni 186                 0.08        -0.00          2.59944
            Ni 95  -- Ni 96                  0.01        -0.00          2.59949
            Ni 25  -- Ni 151                -0.02        -0.00          2.59957
            Ni 13  -- Ni 120                 0.04         0.00          2.59967
            Ni 41  -- Ni 66                 -0.03         0.00          2.60026
             Al 50 -- Ni 142                 0.15         0.00          2.60172
            Ni 112 -- Ni 122                 0.11         0.00          2.60238
            Ni 123 -- Ni 124                 0.01         0.00          2.60259
            Ni 31  -- Ni 32                  0.06        -0.00          2.60261
             Al 46 -- Ni 153                 0.13        -0.00          2.60280
             Al 63 -- Ni 100                 0.18        -0.00          2.60288
            Ni 156 -- Ni 167                 0.12         0.00          2.60294
            Ni 152 -- Ni 160                 0.01        -0.00          2.60300
            Ni 37  -- Ni 39                  0.02        -0.00          2.60401
            Ni 131 -- Ni 133                 0.03         0.00          2.60409
             Al 9  -- Ni 127                 0.19        -0.00          2.60471
            Ni 161 -- Ni 162                -0.00         0.00          2.60484
            Ni 169 -- Ni 171                -0.00        -0.00          2.60498
            Ni 106 -- Ni 131                -0.03         0.00          2.60503
            Ni 7   -- Ni 8                   0.06        -0.00          2.60515
            Ni 117 -- Ni 191                 0.08        -0.00          2.60531
            Ni 59  -- Ni 78                 -0.01        -0.00          2.60540
            Ni 71  -- Ni 90                  0.02        -0.00          2.60734
             Al 58 -- Ni 122                 0.18         0.00          2.60751
            Ni 178 -- Ni 185                 0.08        -0.00          2.60758
             Al 17 -- Ni 134                 0.18         0.00          2.60784
             Al 15 -- Ni 139                 0.17         0.00          2.60790
            Ni 41  -- Ni 42                  0.03         0.00          2.60812
            Ni 147 -- Ni 170                -0.03         0.00          2.60834
             Al 9  -- Ni 144                 0.18         0.00          2.60875
            Ni 169 -- Ni 172                 0.01         0.00          2.60878
            Ni 53  -- Ni 54                 -0.00        -0.00          2.60895
            Ni 54  -- Ni 59                  0.00        -0.00          2.60905
             Al 3  -- Ni 7                   0.18        -0.00          2.60920
            Ni 146 -- Ni 174                 0.01        -0.00          2.60923
            Ni 170 -- Ni 171                -0.02         0.00          2.60952
             Al 51 -- Ni 163                 0.16         0.00          2.60957
            Ni 60  -- Ni 65                  0.01        -0.00          2.60965
             Al 19 -- Ni 134                 0.18         0.00          2.60975
            Ni 155 -- Ni 157                 0.07        -0.00          2.60976
            Ni 47  -- Ni 163                 0.06         0.00          2.61021
            Ni 100 -- Ni 180                 0.11         0.00          2.61036
            Ni 108 -- Ni 111                 0.02        -0.00          2.61050
            Ni 158 -- Ni 160                 0.11        -0.00          2.61053
            Ni 13  -- Ni 20                  0.05         0.00          2.61056
             Al 17 -- Ni 49                  0.18         0.00          2.61085
            Ni 117 -- Ni 122                 0.03        -0.00          2.61099
            Ni 53  -- Ni 78                  0.00        -0.00          2.61119
            Ni 25  -- Ni 126                -0.02        -0.00          2.61126
            Ni 158 -- Ni 181                -0.01        -0.00          2.61139
            Ni 26  -- Ni 43                  0.07        -0.00          2.61149
             Al 38 -- Ni 178                 0.17        -0.00          2.61165
            Ni 143 -- Ni 167                 0.01        -0.00          2.61170
             Al 58 -- Ni 117                 0.15         0.00          2.61209
             Al 50 -- Ni 117                 0.15         0.00          2.61259
            Ni 130 -- Ni 153                -0.01         0.00          2.61278
            Ni 110 -- Ni 118                 0.04         0.00          2.61319
             Al 53 -- Ni 137                 0.18         0.00          2.61401
             Al 59 -- Ni 13                  0.17        -0.00          2.61483
            Ni 152 -- Ni 153                 0.10        -0.00          2.61521
            Ni 140 -- Ni 141                 0.08         0.00          2.61531
             Al 61 -- Ni 100                 0.19        -0.00          2.61538
            Ni 65  -- Ni 66                  0.02        -0.00          2.61575
             Al 3  -- Ni 180                 0.16         0.00          2.61581
             Al 9  -- Ni 43                  0.19        -0.00          2.61603
             Al 58 -- Ni 119                 0.17        -0.00          2.61607
            Ni 151 -- Ni 152                 0.03        -0.00          2.61609
            Ni 121 -- Ni 173                 0.01        -0.00          2.61659
             Al 41 -- Ni 129                 0.19        -0.00          2.61661
            Ni 168 -- Ni 177                 0.03        -0.00          2.61677
             Al 47 -- Ni 150                 0.19        -0.00          2.61695
             Al 56 -- Ni 130                 0.17        -0.00          2.61728
             Al 36 -- Ni 184                 0.18         0.00          2.61737
             Al 35 -- Ni 122                 0.18        -0.00          2.61743
            Ni 172 -- Ni 177                -0.02         0.00          2.61788
            Ni 150 -- Ni 153                -0.02         0.00          2.61860
            Ni 42  -- Ni 47                 -0.01         0.00          2.61865
             Al 40 -- Ni 143                 0.18        -0.00          2.61913
             Al 36 -- Ni 122                 0.17        -0.00          2.62000
            Ni 65  -- Ni 148                 0.04        -0.00          2.62037
             Al 11 -- Ni 27                  0.17         0.00          2.62044
             Al 38 -- Ni 177                 0.16        -0.00          2.62163
            Ni 173 -- Ni 192                -0.00        -0.00          2.62175
            Ni 178 -- Ni 184                 0.02        -0.00          2.62290
            Ni 102 -- Ni 109                -0.00        -0.00          2.62313
            Ni 115 -- Ni 117                 0.10        -0.00          2.62405
             Al 34 -- Ni 122                 0.16        -0.00          2.62520
            Ni 178 -- Ni 179                 0.06        -0.00          2.62528
            Ni 136 -- Ni 141                 0.01         0.00          2.62546
            Ni 170 -- Ni 175                -0.03        -0.00          2.62672
            Ni 124 -- Ni 125                 0.03         0.00          2.62781
             Al 61 -- Ni 104                 0.15         0.00          2.62815
             Al 23 -- Ni 166                 0.14        -0.00          2.63044
            Ni 162 -- Ni 164                 0.01        -0.00          2.63071
             Al 39 -- Ni 178                 0.18         0.00          2.63071
             Al 37 -- Ni 190                 0.15        -0.00          2.63089
            Ni 156 -- Ni 157                 0.12         0.00          2.63140
             Al 49 -- Ni 139                 0.16         0.00          2.63358
            Ni 100 -- Ni 101                 0.08         0.00          2.63461
            Ni 114 -- Ni 133                 0.10         0.00          2.63659
            Ni 155 -- Ni 188                 0.03        -0.00          2.63698
             Al 43 -- Ni 155                 0.18        -0.00          2.63721
            Ni 154 -- Ni 155                 0.06        -0.00          2.63774
             Al 48 -- Al 49                  0.27         0.00          2.63801
             Al 19 -- Ni 31                  0.17        -0.00          2.63823
             Al 38 -- Ni 182                 0.16        -0.00          2.63894
            Ni 127 -- Ni 135                -0.02         0.00          2.64004
            Ni 114 -- Ni 138                 0.01         0.00          2.64203
            Ni 102 -- Ni 108                 0.08        -0.00          2.64362
             Al 48 -- Al 50                  0.25         0.00          2.64429
             Al 46 -- Ni 147                 0.11         0.00          2.64518
             Al 35 -- Ni 190                 0.13         0.00          2.64692
            Ni 156 -- Ni 162                 0.13         0.00          2.64766
             Al 33 -- Ni 122                 0.15        -0.00          2.64868
             Al 50 -- Al 58                  0.24         0.00          2.65017
             Al 13 -- Ni 139                 0.18         0.00          2.65090
             Al 35 -- Ni 189                 0.15        -0.00          2.65178
             Al 42 -- Ni 153                 0.17         0.00          2.65535
             Al 23 -- Ni 159                 0.13        -0.00          2.65576
            Ni 100 -- Ni 103                 0.09         0.00          2.65957
             Al 55 -- Ni 130                 0.16        -0.00          2.66077
             Al 37 -- Ni 122                 0.15        -0.00          2.66100
             Al 38 -- Al 45                  0.23        -0.00          2.66615
            Ni 129 -- Ni 130                 0.09         0.00          2.66863
             Al 50 -- Ni 119                 0.13        -0.00          2.66877
             Al 23 -- Al 49                  0.24         0.00          2.66883
            Ni 161 -- Ni 170                 0.04        -0.00          2.66942
            Ni 148 -- Ni 150                 0.08        -0.00          2.67231
             Al 42 -- Al 43                  0.24        -0.00          2.67242
            Ni 126 -- Ni 127                 0.02         0.00          2.67378
             Al 56 -- Ni 124                 0.15        -0.00          2.68138
             Al 52 -- Ni 37                  0.14         0.00          2.68469
            Ni 168 -- Ni 169                 0.02         0.00          2.69316
             Al 55 -- Ni 100                 0.14        -0.00          2.69695
             Al 46 -- Al 56                  0.23         0.00          2.69917
            Ni 149 -- Ni 150                -0.00         0.00          2.70868
             Al 43 -- Ni 160                 0.12         0.00          2.71177
             Al 45 -- Al 62                  0.19        -0.00          2.71182
            Ni 130 -- Ni 149                 0.01         0.00          2.71666
            Ni 164 -- Ni 170                 0.03         0.00          2.72138
             Al 42 -- Al 45                  0.21        -0.00          2.72147
             Al 34 -- Al 35                  0.20        -0.00          2.72719
             Al 44 -- Al 45                  0.20        -0.00          2.72860
             Al 46 -- Al 47                  0.20         0.00          2.72916
             Al 36 -- Al 37                  0.21        -0.00          2.73221
             Al 61 -- Al 63                  0.19         0.00          2.73275
             Al 33 -- Al 58                  0.21         0.00          2.73340
             Al 34 -- Al 37                  0.20         0.00          2.74045
             Al 33 -- Al 35                  0.20        -0.00          2.75390
             Al 5  -- Al 59                  0.17        -0.00          2.75703
             Al 15 -- Al 49                  0.20         0.00          2.76690
             Al 13 -- Al 59                  0.26         0.00          2.77008
             Al 47 -- Al 62                  0.17        -0.00          2.77021
             Al 44 -- Al 46                  0.17        -0.00          2.77069
             Al 57 -- Al 63                  0.19         0.00          2.77328
             Al 13 -- Al 52                  0.27         0.00          2.77377
             Al 40 -- Al 51                  0.20         0.00          2.77466
             Al 53 -- Al 54                  0.18         0.00          2.77850
             Al 21 -- Al 52                  0.17        -0.00          2.78070
             Al 41 -- Al 43                  0.16         0.00          2.78628
             Al 56 -- Al 57                  0.20         0.00          2.79644
             Al 42 -- Ni 150                 0.11        -0.00          2.79703
             Al 43 -- Al 54                  0.17         0.00          2.79895
             Al 41 -- Al 53                  0.17         0.00          2.80615
             Al 55 -- Al 63                  0.14         0.00          2.84757
             Al 55 -- Al 56                  0.14         0.00          2.84764
             Al 41 -- Al 54                  0.13         0.00          2.85045
             Al 44 -- Al 62                  0.11        -0.00          2.89677
================================================================================
 

Writing analysis data to castep.castep_bin

Writing model to castep.check
 
 A BibTeX formatted list of references used in this run has been written to 
 castep.bib
 
Initialisation time =     13.48 s
Calculation time    =  26813.84 s
Finalisation time   =     13.00 s
Total time          =  26840.32 s
Peak Memory Use     = 2332964 kB
  
Overall parallel efficiency rating: Good (71%)                                  
  
Data was distributed by:-
G-vector (48-way); efficiency rating: Good (72%)                                
