 +-------------------------------------------------+
 |                                                 |
 |      CCC   AA    SSS  TTTTT  EEEEE  PPPP        |
 |     C     A  A  S       T    E      P   P       |
 |     C     AAAA   SS     T    EEE    PPPP        |
 |     C     A  A     S    T    E      P           |
 |      CCC  A  A  SSS     T    EEEEE  P           |
 |                                                 |
 +-------------------------------------------------+
 |                                                 |
 | Welcome to Academic Release CASTEP version 20.11|          
 | Ab Initio Total Energy Program                  |
 |                                                 |
 | Authors:                                        |
 | M. Segall, M. Probert, C. Pickard, P. Hasnip,   |
 | S. Clark, K. Refson, J. R. Yates, M. Payne      |
 |                                                 |
 | Contributors:                                   |
 | P. Lindan, P. Haynes, J. White, V. Milman,      |
 | N. Govind, M. Gibson, P. Tulip, V. Cocula,      |
 | B. Montanari, D. Quigley, M. Glover,            |
 | L. Bernasconi, A. Perlov, M. Plummer,           |
 | E. McNellis, J. Meyer, J. Gale, D. Jochym       |
 | J. Aarons, B. Walker, R. Gillen, D. Jones       |
 | T. Green, I. J. Bush, C. J. Armstrong,          |
 | E. J. Higgins, E. L. Brown, M. S. McFly,        |
 | J. Wilkins, B-C. Shih, P. J. P. Byrne,          |
 | R. J. Maurer, J. C. Womack, J. Dziedzic,        |
 | J. R. Kermode, A. Bartok-Partay                 |
 |                                                 |
 | Copyright (c) 2000 - 2020                       |
 |                                                 |
 |     Distributed under license from Cambridge    |
 |     Enterprise for academic use only.           |
 |                                                 |
 | Please cite                                     |
 |                                                 |
 |     "First principles methods using CASTEP"     |
 |                                                 |
 |         Zeitschrift fuer Kristallographie       |
 |           220(5-6) pp. 567-570 (2005)           |
 |                                                 |
 | S. J. Clark, M. D. Segall, C. J. Pickard,       |
 | P. J. Hasnip, M. J. Probert, K. Refson,         |
 | M. C. Payne                                     |
 |                                                 |
 |       in all publications arising from          |
 |              your use of CASTEP                 |
 |                                                 |
 +-------------------------------------------------+
 |                                                 |
 |              http://www.castep.org              |
 |                                                 |
 +-------------------------------------------------+
 
 
 
 Compiled for linux_x86_64_ifort on Wed, 25 Aug 2021 18:50:38 +0100
 from code version e772bf432+  HEAD  Sat Apr 3 17:41:32 2021 +0100
 Compiler: Intel Fortran 19.0.5.281; Optimisation: fast
 MATHLIBS: Intel MKL(2019.0.5) (LAPACK version 3.7.0)
 FFT Lib : mkl
 Fundamental constants values: CODATA 2014
 
 Run started: Thu, 09 Mar 2023 15:54:22 +0000
 
 Atomic calculation performed for Al: 1s2 2s2 2p6 3s2 3p1
 
 Converged in 52 iterations to an ae energy of -6606.982 eV
 
   ============================================================                
   | Pseudopotential Report - Date of generation  9-03-2023   |                
   ------------------------------------------------------------                
   | Element: Al Ionic charge:  3.00 Level of theory: RPBE    |                
   | Atomic Solver: Koelling-Harmon                           |                
   |                                                          |                
   |               Reference Electronic Structure             |                
   |         Orbital         Occupation         Energy        |                
   |            3s              2.000           -0.284        |                
   |            3p              1.000           -0.100        |                
   |                                                          |                
   |                 Pseudopotential Definition               |                
   |        Beta     l      e      Rc     scheme   norm       |                
   |          1      0   -0.284   2.192     qc      0         |                
   |          2      0    0.250   2.192     qc      0         |                
   |          3      1   -0.100   2.192     qc      0         |                
   |          4      1    0.250   2.192     qc      0         |                
   |          5      2    0.000   2.000     qc      0         |                
   |          6      2    0.250   2.000     qc      0         |                
   |         loc     3    0.000   2.192     pn      0         |                
   |                                                          |                
   | Augmentation charge Rinner = 1.398                       |                
   | Partial core correction Rc = 1.398                       |                
   ------------------------------------------------------------                
   | "3|2.2|2.2|1.4|4|5|5|30:31:32U2U2"                       |                
   ------------------------------------------------------------                
   |      Author: Chris J. Pickard, Cambridge University      |                
   ============================================================                
 
 Atomic calculation performed for Ni: 1s2 2s2 2p6 3s2 3p6 3d8 4s2
 
 Converged in 109 iterations to an ae energy of -41381.414 eV
 
   ============================================================                
   | Pseudopotential Report - Date of generation  9-03-2023   |                
   ------------------------------------------------------------                
   | Element: Ni Ionic charge: 10.00 Level of theory: RPBE    |                
   | Atomic Solver: Koelling-Harmon                           |                
   |                                                          |                
   |               Reference Electronic Structure             |                
   |         Orbital         Occupation         Energy        |                
   |            3d              8.000           -0.324        |                
   |            4s              2.000           -0.204        |                
   |                                                          |                
   |                 Pseudopotential Definition               |                
   |        Beta     l      e      Rc     scheme   norm       |                
   |          1      0   -0.204   2.401     qc      0         |                
   |          2      0    0.250   2.401     qc      0         |                
   |          3      1    0.000   2.401     qc      0         |                
   |          4      1    0.250   2.401     qc      0         |                
   |          5      2   -0.324   1.999     qc      0         |                
   |          6      2    0.250   1.999     qc      0         |                
   |         loc     3    0.000   2.401     pn      0         |                
   |                                                          |                
   | Augmentation charge Rinner = 1.001                       |                
   | Partial core correction Rc = 1.001                       |                
   ------------------------------------------------------------                
   | "3|2.4|2.4|1.0|8|9|10|40:41:32U2U2(qc=5.5)"              |                
   ------------------------------------------------------------                
   |      Author: Chris J. Pickard, Cambridge University      |                
   ============================================================                
 
 Pseudo atomic calculation performed for Al 3s2 3p1
 
 Converged in 13 iterations to a total energy of -107.6592 eV
 
 Pseudo atomic calculation performed for Ni 3d8 4s2
 
 Converged in 41 iterations to a total energy of -1369.7891 eV
 Calculation parallelised over 48 processes.
 Data is distributed by G-vector(48-way)

 ************************************ Title ************************************
 

 ***************************** General Parameters ******************************
  
 output verbosity                               : normal  (1)
 write checkpoint data to                       : castep.check
 type of calculation                            : geometry optimization
 stress calculation                             : off
 density difference calculation                 : off
 electron localisation func (ELF) calculation   : off
 Hirshfeld analysis                             : off
 molecular orbital projected DOS                : off
 deltaSCF calculation                           : off
 unlimited duration calculation
 timing information                             : on
 memory usage estimate                          : on
 write extra output files                       : on
 write final potential to formatted file        : off
 write final density to formatted file          : off
 write BibTeX reference list                    : on
 write OTFG pseudopotential files               : on
 write electrostatic potential file             : on
 write bands file                               : on
 checkpoint writing                             : both castep_bin and check files
  
 output         length unit                     : A
 output           mass unit                     : amu
 output           time unit                     : ps
 output         charge unit                     : e
 output           spin unit                     : hbar/2
 output         energy unit                     : eV
 output          force unit                     : eV/A
 output       velocity unit                     : A/ps
 output       pressure unit                     : GPa
 output     inv_length unit                     : 1/A
 output      frequency unit                     : cm-1
 output force constant unit                     : eV/A**2
 output         volume unit                     : A**3
 output   IR intensity unit                     : (D/A)**2/amu
 output         dipole unit                     : D
 output         efield unit                     : eV/A/e
 output        entropy unit                     : J/mol/K
 output    efield chi2 unit                     : pm/V
  
 wavefunctions paging                           : none
 random number generator seed                   : randomised (155422503)
 data distribution                              : optimal for this architecture
 optimization strategy                          : maximize speed(+++)

 *********************** Exchange-Correlation Parameters ***********************
  
 using functional                               : revised Perdew Burke Ernzerhof
 relativistic treatment                         : Koelling-Harmon
 DFT+D: Semi-empirical dispersion correction    : off

 ************************* Pseudopotential Parameters **************************
  
 pseudopotential representation                 : reciprocal space
 <beta|phi> representation                      : reciprocal space
 spin-orbit coupling                            : off

 **************************** Basis Set Parameters *****************************
  
 plane wave basis set cut-off                   :   900.0000   eV
 size of standard grid                          :     1.7500
 size of   fine   gmax                          :    26.8966   1/A
 finite basis set correction                    : none

 **************************** Electronic Parameters ****************************
  
 number of  electrons                           :  2046.    
 net charge of system                           :  0.000    
 treating system as non-spin-polarized
 number of bands                                :       1135

 ********************* Electronic Minimization Parameters **********************
  
 Method: Treating system as metallic with density mixing treatment of electrons,
         and number of  SD  steps               :          1
         and number of  CG  steps               :          4
  
 total energy / atom convergence tol.           : 0.1000E-05   eV
 eigen-energy convergence tolerance             : 0.2247E-06   eV
 max force / atom convergence tol.              : ignored
 convergence tolerance window                   :          3   cycles
 max. number of SCF cycles                      :        200
 number of fixed-spin iterations                :         10
 smearing scheme                                : Gaussian
 smearing width                                 : 0.2000       eV
 Fermi energy convergence tolerance             : 0.2721E-13   eV
 periodic dipole correction                     : NONE
 periodically dump wavefunctions to             : castep.wvfn
 dump wavefunctions every                       :          1   SCF cycles

 ************************** Density Mixing Parameters **************************
  
 density-mixing scheme                          : Pulay
 max. length of mixing history                  :         20
 charge density mixing amplitude                : 0.8000    
 cut-off energy for mixing                      :  900.0       eV

 *********************** Population Analysis Parameters ************************
  
 Population analysis with cutoff                :  3.000       A
 Population analysis output                     : summary and pdos components

 ********************** Geometry Optimization Parameters ***********************
  
 optimization method                            : LBFGS
 max. no. of LBFGS updates                      : unbounded
 variable cell method                           : fixed basis quality
 max. number of steps                           :         30
 estimated bulk modulus                         :  500.0       GPa
 estimated <frequency>                          :  1668.       cm-1
 geom line minimiser                            : on
 with line minimiser tolerance                  :     0.4000
 total energy convergence tolerance             : 0.2000E-04   eV/atom
        max ionic |force| tolerance             : 0.5000E-01   eV/A
 max ionic |displacement| tolerance             : 0.1000E-02   A
   max |stress component| tolerance             : 0.1000       GPa
 convergence tolerance window                   :          2   steps
 backup results every                           :          5   steps
 write geom trajectory file                     : on

 *******************************************************************************
  
 
                           -------------------------------
                                      Unit Cell
                           -------------------------------
        Real Lattice(A)                      Reciprocal Lattice(1/A)
    14.4648280     0.0000000     0.0000000        0.434376773   0.000000000   0.000000000
     0.0000000    14.4648280     0.0000000        0.000000000   0.434376773   0.000000000
     0.0000000     0.0000000    14.4648280        0.000000000   0.000000000   0.434376773
 
                       Lattice parameters(A)       Cell Angles
                    a =     14.464828          alpha =   90.000000
                    b =     14.464828          beta  =   90.000000
                    c =     14.464828          gamma =   90.000000
 
                       Current cell volume =          3026.494030       A**3
                                   density =             4.190844   AMU/A**3
                                           =             6.959059     g/cm^3
 
                           -------------------------------
                                     Cell Contents
                           -------------------------------
                         Total number of ions in cell =  255
                      Total number of species in cell =    2
                        Max number of any one species =  183
 
            xxxxxxxxxxxxxxxxxxxxxxxxxxxxxxxxxxxxxxxxxxxxxxxxxxxxxxxxxxxx
            x  Element    Atom        Fractional coordinates of atoms  x
            x            Number           u          v          w      x
            x----------------------------------------------------------x
            x  Al           1         0.943148   0.188049   0.313577   x 
            x  Al           2         0.942233   0.439953   0.313652   x 
            x  Al           3         0.946808   0.689566   0.307668   x 
            x  Al           4         0.943798   0.937395   0.312381   x 
            x  Al           5         0.942016   0.186202   0.562592   x 
            x  Al           6         0.941530   0.440825   0.562186   x 
            x  Al           7         0.948611   0.691072   0.563798   x 
            x  Al           8         0.945421   0.936475   0.559689   x 
            x  Al           9         0.943968   0.187949   0.811790   x 
            x  Al          10         0.942343   0.439780   0.810299   x 
            x  Al          11         0.945754   0.688293   0.816418   x 
            x  Al          12         0.948467   0.937668   0.818807   x 
            x  Al          13         0.944961   0.189064   0.062320   x 
            x  Al          14         0.943205   0.438872   0.063561   x 
            x  Al          15         0.943357   0.687946   0.062248   x 
            x  Al          16         0.944243   0.938401   0.061161   x 
            x  Al          17         0.700980   0.064473   0.182472   x 
            x  Al          18         0.427592   0.937169   0.058959   x 
            x  Al          19         0.562968   0.071300   0.056880   x 
            x  Al          20         0.174967   0.055280   0.430956   x 
            x  Al          21         0.193744   0.937889   0.060798   x 
            x  Al          22         0.174319   0.693923   0.062399   x 
            x  Al          23         0.314663   0.058866   0.304911   x 
            x  Al          24         0.052969   0.945326   0.184162   x 
            x  Al          25         0.694322   0.814046   0.188265   x 
            x  Al          26         0.564184   0.809368   0.055333   x 
            x  Al          27         0.307617   0.573164   0.324066   x 
            x  Al          28         0.177146   0.560338   0.190613   x 
            x  Al          29         0.699229   0.309770   0.185806   x 
            x  Al          30         0.442938   0.567126   0.182133   x 
            x  Al          31         0.310885   0.317112   0.075251   x 
            x  Al          32         0.569253   0.068363   0.822792   x 
            x  Al          33         0.061331   0.937254   0.930004   x 
            x  Al          34         0.437199   0.689228   0.814160   x 
            x  Al          35         0.308174   0.687768   0.937724   x 
            x  Al          36         0.695062   0.558106   0.944667   x 
            x  Al          37         0.563892   0.555594   0.817671   x 
            x  Al          38         0.308974   0.445408   0.933185   x 
            x  Al          39         0.072714   0.565259   0.808153   x 
            x  Al          40         0.698852   0.315017   0.938509   x 
            x  Al          41         0.688935   0.565768   0.182538   x 
            x  Al          42         0.554029   0.440638   0.676292   x 
            x  Al          43         0.552643   0.310335   0.814600   x 
            x  Al          44         0.309145   0.186312   0.933703   x 
            x  Al          45         0.066023   0.316189   0.821536   x 
            x  Al          46         0.691146   0.940220   0.561924   x 
            x  Al          47         0.811915   0.937527   0.696067   x 
            x  Al          48         0.560467   0.934768   0.433166   x 
            x  Al          49         0.440556   0.062124   0.689681   x 
            x  Al          50         0.313657   0.054674   0.557165   x 
            x  Al          51         0.804266   0.689428   0.688233   x 
            x  Al          52         0.443109   0.827164   0.690879   x 
            x  Al          53         0.572792   0.689747   0.681301   x 
            x  Al          54         0.313843   0.819142   0.561875   x 
            x  Al          55         0.696982   0.443124   0.551838   x 
            x  Al          56         0.197778   0.434228   0.547823   x 
            x  Al          57         0.319855   0.575246   0.559551   x 
            x  Al          58         0.061724   0.437299   0.677295   x 
            x  Al          59         0.696766   0.306232   0.687098   x 
            x  Al          60         0.555893   0.301306   0.552590   x 
            x  Al          61         0.188910   0.193915   0.558168   x 
            x  Al          62         0.061656   0.189665   0.688032   x 
            x  Al          63         0.560112   0.066772   0.304693   x 
            x  Al          64         0.807325   0.693257   0.437180   x 
            x  Al          65         0.565228   0.694356   0.435782   x 
            x  Al          66         0.315360   0.813183   0.304433   x 
            x  Al          67         0.179622   0.816327   0.439654   x 
            x  Al          68         0.051389   0.810399   0.311654   x 
            x  Al          69         0.561916   0.301143   0.316061   x 
            x  Al          70         0.553334   0.314754   0.064352   x 
            x  Al          71         0.694842   0.440822   0.322630   x 
            x  Al          72         0.433740   0.437509   0.324703   x 
            x  Ni           1         0.940601   0.312464   0.438346   x 
            x  Ni           2         0.940301   0.570009   0.436505   x 
            x  Ni           3         0.940496   0.810689   0.435941   x 
            x  Ni           4         0.941348   0.061939   0.437204   x 
            x  Ni           5         0.817996   0.313707   0.810928   x 
            x  Ni           6         0.938379   0.567457   0.688622   x 
            x  Ni           7         0.938937   0.813228   0.690393   x 
            x  Ni           8         0.940344   0.059389   0.688880   x 
            x  Ni           9         0.940701   0.314706   0.936301   x 
            x  Ni          10         0.939904   0.562684   0.937811   x 
            x  Ni          11         0.941934   0.812225   0.939486   x 
            x  Ni          12         0.942730   0.064270   0.938050   x 
            x  Ni          13         0.939928   0.314705   0.189044   x 
            x  Ni          14         0.940693   0.563464   0.186919   x 
            x  Ni          15         0.941143   0.813979   0.185312   x 
            x  Ni          16         0.940835   0.062541   0.186986   x 
            x  Ni          17         0.061016   0.187684   0.437155   x 
            x  Ni          18         0.062015   0.312229   0.313790   x 
            x  Ni          19         0.188737   0.310138   0.432765   x 
            x  Ni          20         0.308489   0.178637   0.433714   x 
            x  Ni          21         0.312429   0.311942   0.312335   x 
            x  Ni          22         0.185491   0.184344   0.311680   x 
            x  Ni          23         0.434804   0.306390   0.433829   x 
            x  Ni          24         0.563587   0.180520   0.434786   x 
            x  Ni          25         0.434918   0.184158   0.309073   x 
            x  Ni          26         0.689620   0.310075   0.437456   x 
            x  Ni          27         0.817091   0.184747   0.438238   x 
            x  Ni          28         0.688119   0.567535   0.434977   x 
            x  Ni          29         0.693355   0.185362   0.310986   x 
            x  Ni          30         0.062309   0.437942   0.439952   x 
            x  Ni          31         0.062415   0.565128   0.317758   x 
            x  Ni          32         0.187498   0.569176   0.441622   x 
            x  Ni          33         0.312282   0.447260   0.195596   x 
            x  Ni          34         0.190761   0.440758   0.321750   x 
            x  Ni          35         0.438903   0.571093   0.435129   x 
            x  Ni          36         0.689178   0.691001   0.559756   x 
            x  Ni          37         0.820486   0.441504   0.437677   x 
            x  Ni          38         0.816445   0.567220   0.311976   x 
            x  Ni          39         0.562891   0.563644   0.311235   x 
            x  Ni          40         0.058908   0.691127   0.440325   x 
            x  Ni          41         0.312603   0.699587   0.437811   x 
            x  Ni          42         0.183200   0.693982   0.312751   x 
            x  Ni          43         0.438894   0.815810   0.433597   x 
            x  Ni          44         0.689502   0.688983   0.309874   x 
            x  Ni          45         0.563612   0.815756   0.306342   x 
            x  Ni          46         0.687984   0.817725   0.433709   x 
            x  Ni          47         0.817141   0.569310   0.561874   x 
            x  Ni          48         0.817017   0.813763   0.311150   x 
            x  Ni          49         0.055374   0.936682   0.435813   x 
            x  Ni          50         0.057090   0.063095   0.309848   x 
            x  Ni          51         0.181622   0.934222   0.308244   x 
            x  Ni          52         0.309971   0.935088   0.430591   x 
            x  Ni          53         0.180757   0.814764   0.187357   x 
            x  Ni          54         0.310713   0.936970   0.184938   x 
            x  Ni          55         0.437431   0.058022   0.432644   x 
            x  Ni          56         0.689128   0.941800   0.307906   x 
            x  Ni          57         0.439434   0.937974   0.304624   x 
            x  Ni          58         0.688550   0.059131   0.434625   x 
            x  Ni          59         0.816075   0.936413   0.437046   x 
            x  Ni          60         0.818078   0.061918   0.312455   x 
            x  Ni          61         0.565572   0.940119   0.177861   x 
            x  Ni          62         0.062889   0.312873   0.560431   x 
            x  Ni          63         0.187292   0.314731   0.684077   x 
            x  Ni          64         0.311558   0.185987   0.684409   x 
            x  Ni          65         0.315064   0.309953   0.557043   x 
            x  Ni          66         0.438142   0.311213   0.682196   x 
            x  Ni          67         0.564025   0.187269   0.687873   x 
            x  Ni          68         0.434283   0.180005   0.560394   x 
            x  Ni          69         0.818684   0.184975   0.687398   x 
            x  Ni          70         0.815869   0.312170   0.561013   x 
            x  Ni          71         0.691878   0.185051   0.561122   x 
            x  Ni          72         0.063053   0.564339   0.561243   x 
            x  Ni          73         0.190340   0.563217   0.678616   x 
            x  Ni          74         0.314463   0.440347   0.680627   x 
            x  Ni          75         0.440927   0.568432   0.686598   x 
            x  Ni          76         0.430473   0.439051   0.550655   x 
            x  Ni          77         0.561475   0.564991   0.558049   x 
            x  Ni          78         0.563318   0.436106   0.437878   x 
            x  Ni          79         0.685406   0.558857   0.685676   x 
            x  Ni          80         0.939232   0.313668   0.686170   x 
            x  Ni          81         0.814468   0.439843   0.684130   x 
            x  Ni          82         0.062228   0.689569   0.686623   x 
            x  Ni          83         0.059927   0.815276   0.564170   x 
            x  Ni          84         0.187834   0.817425   0.685347   x 
            x  Ni          85         0.316648   0.694387   0.686250   x 
            x  Ni          86         0.187936   0.694133   0.563560   x 
            x  Ni          87         0.439572   0.940015   0.561844   x 
            x  Ni          88         0.442404   0.697785   0.564356   x 
            x  Ni          89         0.688036   0.816882   0.690318   x 
            x  Ni          90         0.816150   0.815059   0.564477   x 
            x  Ni          91         0.564777   0.819145   0.562246   x 
            x  Ni          92         0.059982   0.941512   0.688045   x 
            x  Ni          93         0.060977   0.065168   0.563471   x 
            x  Ni          94         0.186903   0.064931   0.683835   x 
            x  Ni          95         0.312818   0.940936   0.688551   x 
            x  Ni          96         0.184903   0.939459   0.561001   x 
            x  Ni          97         0.568195   0.943719   0.691134   x 
            x  Ni          98         0.563976   0.062021   0.560780   x 
            x  Ni          99         0.689649   0.064894   0.690446   x 
            x  Ni         100         0.816275   0.058849   0.563602   x 
            x  Ni         101         0.064350   0.188595   0.936805   x 
            x  Ni         102         0.194092   0.315676   0.939894   x 
            x  Ni         103         0.188438   0.189054   0.062821   x 
            x  Ni         104         0.313139   0.314645   0.808886   x 
            x  Ni         105         0.187158   0.190140   0.810125   x 
            x  Ni         106         0.435581   0.186571   0.811827   x 
            x  Ni         107         0.820059   0.189107   0.936931   x 
            x  Ni         108         0.691578   0.191898   0.814854   x 
            x  Ni         109         0.064384   0.440096   0.937623   x 
            x  Ni         110         0.184285   0.566938   0.939750   x 
            x  Ni         111         0.310586   0.566034   0.808573   x 
            x  Ni         112         0.188001   0.439486   0.807692   x 
            x  Ni         113         0.435662   0.562729   0.937672   x 
            x  Ni         114         0.435429   0.439624   0.809259   x 
            x  Ni         115         0.562576   0.432631   0.938152   x 
            x  Ni         116         0.817817   0.438663   0.936255   x 
            x  Ni         117         0.813417   0.562727   0.811856   x 
            x  Ni         118         0.686751   0.432903   0.809469   x 
            x  Ni         119         0.056812   0.689111   0.932887   x 
            x  Ni         120         0.061391   0.814074   0.807892   x 
            x  Ni         121         0.185344   0.813734   0.935083   x 
            x  Ni         122         0.314064   0.814586   0.810963   x 
            x  Ni         123         0.188406   0.691090   0.809598   x 
            x  Ni         124         0.436439   0.812317   0.937021   x 
            x  Ni         125         0.564340   0.683602   0.935728   x 
            x  Ni         126         0.563766   0.813116   0.815293   x 
            x  Ni         127         0.689956   0.812031   0.938186   x 
            x  Ni         128         0.816443   0.687145   0.936493   x 
            x  Ni         129         0.815555   0.811773   0.814790   x 
            x  Ni         130         0.687792   0.684309   0.814591   x 
            x  Ni         131         0.059723   0.065236   0.810705   x 
            x  Ni         132         0.185730   0.062806   0.935465   x 
            x  Ni         133         0.310041   0.938903   0.935180   x 
            x  Ni         134         0.312028   0.064230   0.810879   x 
            x  Ni         135         0.186463   0.939067   0.810968   x 
            x  Ni         136         0.436953   0.065548   0.938309   x 
            x  Ni         137         0.562928   0.939602   0.942091   x 
            x  Ni         138         0.440663   0.942453   0.816313   x 
            x  Ni         139         0.691536   0.066958   0.941204   x 
            x  Ni         140         0.818022   0.937900   0.936347   x 
            x  Ni         141         0.816265   0.063588   0.815225   x 
            x  Ni         142         0.689790   0.940061   0.818193   x 
            x  Ni         143         0.062159   0.187578   0.185840   x 
            x  Ni         144         0.065390   0.312885   0.061718   x 
            x  Ni         145         0.185555   0.316283   0.192336   x 
            x  Ni         146         0.309098   0.187700   0.188275   x 
            x  Ni         147         0.427694   0.316086   0.939439   x 
            x  Ni         148         0.184176   0.061205   0.186454   x 
            x  Ni         149         0.437631   0.316522   0.192873   x 
            x  Ni         150         0.566258   0.189022   0.184059   x 
            x  Ni         151         0.562474   0.196609   0.939465   x 
            x  Ni         152         0.432334   0.191268   0.062743   x 
            x  Ni         153         0.690548   0.433560   0.065566   x 
            x  Ni         154         0.821192   0.187786   0.187226   x 
            x  Ni         155         0.820562   0.314139   0.062621   x 
            x  Ni         156         0.693194   0.192503   0.061483   x 
            x  Ni         157         0.060148   0.437195   0.191581   x 
            x  Ni         158         0.052708   0.562919   0.063578   x 
            x  Ni         159         0.307376   0.684437   0.186513   x 
            x  Ni         160         0.186484   0.440453   0.065626   x 
            x  Ni         161         0.438835   0.689871   0.307835   x 
            x  Ni         162         0.566581   0.434298   0.195674   x 
            x  Ni         163         0.564758   0.559676   0.061020   x 
            x  Ni         164         0.433785   0.440531   0.065305   x 
            x  Ni         165         0.816291   0.312470   0.314873   x 
            x  Ni         166         0.817204   0.562570   0.063665   x 
            x  Ni         167         0.815078   0.439922   0.191264   x 
            x  Ni         168         0.056258   0.689282   0.187753   x 
            x  Ni         169         0.060096   0.820762   0.060776   x 
            x  Ni         170         0.308862   0.809391   0.062684   x 
            x  Ni         171         0.307595   0.565792   0.063957   x 
            x  Ni         172         0.439627   0.811656   0.180703   x 
            x  Ni         173         0.566398   0.690090   0.184043   x 
            x  Ni         174         0.436587   0.687743   0.059297   x 
            x  Ni         175         0.816779   0.689174   0.186911   x 
            x  Ni         176         0.816589   0.813486   0.061099   x 
            x  Ni         177         0.692129   0.688913   0.061229   x 
            x  Ni         178         0.061601   0.062431   0.058104   x 
            x  Ni         179         0.311331   0.065446   0.061818   x 
            x  Ni         180         0.438927   0.062847   0.180836   x 
            x  Ni         181         0.692429   0.938105   0.060867   x 
            x  Ni         182         0.818464   0.937658   0.186284   x 
            x  Ni         183         0.818935   0.063464   0.060000   x 
            xxxxxxxxxxxxxxxxxxxxxxxxxxxxxxxxxxxxxxxxxxxxxxxxxxxxxxxxxxxx
 
 
                         No user defined ionic velocities
 
                           -------------------------------
                                   Details of Species
                           -------------------------------
 
                               Mass of species in AMU
                                    Al   26.9815400
                                    Ni   58.6934000
 
                          Electric Quadrupole Moment (Barn)
                                    Al    0.1466000 Isotope 27
                                    Ni    0.1620000 Isotope 61
 
                          Files used for pseudopotentials:
                                    Al 3|2.2|2.2|1.4|4|5|5|30:31:32U2U2
                                    Ni 3|2.4|2.4|1.0|8|9|10|40:41:32U2U2(qc=5.5)
 
                           -------------------------------
                              k-Points For BZ Sampling
                           -------------------------------
                       MP grid size for SCF calculation is  1  1  1
                            with an offset of   0.000  0.000  0.000
                       Number of kpoints used =             1
 
                           -------------------------------
                               Symmetry and Constraints
                           -------------------------------
 
                      Maximum deviation from symmetry =  0.00000         ANG
 
                      Number of symmetry operations   =           1
                      Number of ionic constraints     =           3
                      Point group of crystal =     1: C1, 1, 1
                      Space group of crystal =     1: P1, P 1
 
             Set iprint > 1 for details on symmetry rotations/translations
 
                         Centre of mass is constrained
             Set iprint > 1 for details of linear ionic constraints
 
                         Number of cell constraints= 6
                         Cell constraints are:  0 0 0 0 0 0
 
                         External pressure/stress (GPa)
                          0.00000   0.00000   0.00000
                                    0.00000   0.00000
                                              0.00000
  
+---------------- MEMORY AND SCRATCH DISK ESTIMATES PER PROCESS --------------+
|                                                     Memory          Disk    |
| Baseline code, static data and system overhead      622.0 MB         0.0 MB |
| BLAS internal memory storage                          0.0 MB         0.0 MB |
| Model and support data                              703.2 MB         0.0 MB |
| Electronic energy minimisation requirements         156.3 MB         0.0 MB |
| Force calculation requirements                        5.4 MB         0.0 MB |
|                                               ----------------------------- |
| Approx. total storage required per process         1481.4 MB         0.0 MB |
|                                                                             |
| Requirements will fluctuate during execution and may exceed these estimates |
+-----------------------------------------------------------------------------+
Calculating total energy with cut-off of  900.000 eV.
------------------------------------------------------------------------ <-- SCF
SCF loop      Energy           Fermi           Energy gain       Timer   <-- SCF
                               energy          per atom          (sec)   <-- SCF
------------------------------------------------------------------------ <-- SCF
Initial  -2.08571886E+005  0.00000000E+000                        15.71  <-- SCF
      1  -2.52473736E+005  7.21205540E+000   1.72164115E+002      56.98  <-- SCF
      2  -2.59292072E+005  3.76476596E+000   2.67385722E+001     101.43  <-- SCF
      3  -2.59993782E+005  3.72335604E+000   2.75180563E+000     143.42  <-- SCF
      4  -2.60040359E+005  3.89002456E+000   1.82653989E-001     180.06  <-- SCF
      5  -2.60355296E+005  6.98406844E+000   1.23504937E+000     226.63  <-- SCF
      6  -2.60138414E+005  5.78458425E+000  -8.50520162E-001     279.92  <-- SCF
      7  -2.60023494E+005  4.78005677E+000  -4.50665080E-001     340.28  <-- SCF
      8  -2.59997349E+005  4.61929342E+000  -1.02531685E-001     385.35  <-- SCF
      9  -2.60001071E+005  4.65645704E+000   1.45988788E-002     430.19  <-- SCF
     10  -2.60010385E+005  4.69451130E+000   3.65234790E-002     476.13  <-- SCF
     11  -2.59999468E+005  4.62985254E+000  -4.28128653E-002     529.32  <-- SCF
     12  -2.59995055E+005  4.59489671E+000  -1.73040225E-002     574.65  <-- SCF
     13  -2.59994718E+005  4.58754628E+000  -1.32118030E-003     621.55  <-- SCF
     14  -2.59995109E+005  4.59204354E+000   1.53100806E-003     668.60  <-- SCF
     15  -2.59994112E+005  4.57955644E+000  -3.90780928E-003     717.25  <-- SCF
     16  -2.59994017E+005  4.58032627E+000  -3.72094491E-004     766.72  <-- SCF
     17  -2.59994047E+005  4.58228210E+000   1.15750832E-004     818.73  <-- SCF
     18  -2.59993976E+005  4.58510332E+000  -2.78387987E-004     865.65  <-- SCF
     19  -2.59993973E+005  4.58598486E+000  -9.03652338E-006     916.77  <-- SCF
     20  -2.59993985E+005  4.58642179E+000   4.53019679E-005     965.39  <-- SCF
     21  -2.59993967E+005  4.58639761E+000  -7.12665207E-005    1010.10  <-- SCF
     22  -2.59993968E+005  4.58646567E+000   3.31440431E-006    1053.59  <-- SCF
     23  -2.59993967E+005  4.58642201E+000  -2.92257653E-006    1094.86  <-- SCF
     24  -2.59993966E+005  4.58642196E+000  -4.32225783E-006    1126.44  <-- SCF
     25  -2.59993966E+005  4.58644683E+000   3.66326423E-007    1158.01  <-- SCF
     26  -2.59993966E+005  4.58637152E+000  -1.64721711E-007    1189.29  <-- SCF
------------------------------------------------------------------------ <-- SCF
 
Final energy, E             =  -259989.7826721     eV
Final free energy (E-TS)    =  -259993.9657930     eV
(energies not corrected for finite basis set)
 
NB est. 0K energy (E-0.5TS)      =  -259991.8742325     eV
 

Writing analysis data to castep.castep_bin

Writing model to castep.check
 
+---------------- MEMORY AND SCRATCH DISK ESTIMATES PER PROCESS --------------+
|                                                     Memory          Disk    |
| Model and support data                              713.2 MB         0.0 MB |
| Electronic energy minimisation requirements         156.3 MB         0.0 MB |
| Geometry minimisation requirements                  192.3 MB         0.0 MB |
|                                               ----------------------------- |
| Approx. total storage required per process         1061.8 MB         0.0 MB |
|                                                                             |
| Requirements will fluctuate during execution and may exceed these estimates |
+-----------------------------------------------------------------------------+
 
 
 ************************************** Forces **************************************
 *                                                                                  *
 *                           Cartesian components (eV/A)                            *
 * -------------------------------------------------------------------------------- *
 *                         x                    y                    z              *
 *                                                                                  *
 * Al              1     -0.44802              0.14633             -0.10854         *
 * Al              2     -0.23280             -0.09179              0.11333         *
 * Al              3     -2.27893             -1.95438              0.18750         *
 * Al              4     -2.87727              1.30675              1.01826         *
 * Al              5     -1.21094              0.06621             -0.93463         *
 * Al              6     -1.66395              0.01359             -1.31576         *
 * Al              7     -0.44562             -0.11331              0.16521         *
 * Al              8     -0.54227              0.15072              0.05101         *
 * Al              9     -2.09620             -0.55062              1.01652         *
 * Al             10     -2.18317              0.27393              0.74851         *
 * Al             11     -1.31566              0.55356             -0.29743         *
 * Al             12     -2.36930              0.03985             -1.75100         *
 * Al             13     -0.48463              0.07940             -0.03124         *
 * Al             14     -0.48379             -0.39956             -0.00735         *
 * Al             15     -0.77544              0.19700             -0.11152         *
 * Al             16     -2.80144              0.23075             -0.81202         *
 * Al             17      0.19106              0.03660              0.13624         *
 * Al             18     -0.06651              0.12591              0.05828         *
 * Al             19      0.02132             -0.07376             -0.11528         *
 * Al             20     -0.11698             -0.00082             -0.15446         *
 * Al             21      0.34151              0.11708              0.06344         *
 * Al             22      0.19896             -0.03917              0.01503         *
 * Al             23      0.00927              0.06246             -0.12564         *
 * Al             24      2.85065             -0.07633              0.35187         *
 * Al             25      0.17795              0.03874              0.21125         *
 * Al             26      0.01802             -0.22745             -0.09973         *
 * Al             27     -0.08214              0.04088              0.06247         *
 * Al             28      0.08090             -0.10941             -0.05965         *
 * Al             29      0.28945             -0.26107             -0.06366         *
 * Al             30     -0.10445              0.11503             -0.17132         *
 * Al             31     -0.09571              0.05624              0.09186         *
 * Al             32      0.14249             -0.16291             -0.05536         *
 * Al             33      2.49721              0.08798              1.16654         *
 * Al             34     -0.10763             -0.05616              0.03848         *
 * Al             35     -0.02876              0.07902              0.10252         *
 * Al             36      0.13405              0.17509             -0.04284         *
 * Al             37      0.03681             -0.03396              0.05408         *
 * Al             38      0.02816              0.02711              0.01861         *
 * Al             39      0.87584              0.19143              0.57744         *
 * Al             40      0.07035             -0.10639             -0.10059         *
 * Al             41      0.10177              0.16567              0.04627         *
 * Al             42     -0.47124              0.27581              0.02984         *
 * Al             43     -0.20218             -0.10215              0.08595         *
 * Al             44      0.15804             -0.11025             -0.00653         *
 * Al             45      1.65898             -0.03495              0.28514         *
 * Al             46     -0.26283             -0.07441             -0.04390         *
 * Al             47     -0.07928              0.13880              0.13321         *
 * Al             48     -0.28451              0.04794             -0.01851         *
 * Al             49     -0.04054              0.02760             -0.05460         *
 * Al             50      0.01831             -0.08834              0.11888         *
 * Al             51     -0.14724             -0.02860              0.03792         *
 * Al             52     -0.01574              0.14788             -0.07395         *
 * Al             53      0.17088             -0.07163             -0.19089         *
 * Al             54      0.11466             -0.00529              0.17836         *
 * Al             55      0.13447              0.36109             -0.16750         *
 * Al             56      0.07723             -0.16627             -0.09726         *
 * Al             57      0.09977              0.06955              0.03555         *
 * Al             58      1.93973             -0.02323              0.47469         *
 * Al             59      0.51267             -0.27215              0.04496         *
 * Al             60     -0.09553             -0.21252             -0.26134         *
 * Al             61      0.06518              0.23253              0.02222         *
 * Al             62      1.57925             -0.39090             -0.24814         *
 * Al             63     -0.02073              0.06854              0.09145         *
 * Al             64     -0.07444             -0.18555             -0.16943         *
 * Al             65     -0.17080             -0.05587             -0.20658         *
 * Al             66      0.03907             -0.00440             -0.23572         *
 * Al             67      0.04572             -0.03906              0.02541         *
 * Al             68      3.09716              0.38426             -0.18298         *
 * Al             69     -0.05862             -0.06906              0.23937         *
 * Al             70     -0.11201              0.16016              0.07359         *
 * Al             71     -0.04669              0.12144              0.17217         *
 * Al             72     -0.06000             -0.22979              0.03030         *
 * Ni              1     -0.24130              0.10267              0.00100         *
 * Ni              2     -0.36633             -0.13172              0.25420         *
 * Ni              3     -0.83794             -0.10113              0.21737         *
 * Ni              4     -0.43308              0.16070              0.14502         *
 * Ni              5      0.15201              0.05383             -0.05693         *
 * Ni              6      0.23099             -0.36657              0.17376         *
 * Ni              7     -0.28475              0.04558             -0.13137         *
 * Ni              8     -0.49725              0.23382             -0.08386         *
 * Ni              9     -0.04508             -0.02079             -0.11003         *
 * Ni             10     -0.28008             -0.09817             -0.69794         *
 * Ni             11     -0.49881              0.45253             -0.38416         *
 * Ni             12     -0.36576             -0.28282             -0.25759         *
 * Ni             13     -0.09100             -0.16814             -0.04115         *
 * Ni             14     -0.42130             -0.09851              0.48987         *
 * Ni             15     -0.50961              0.60852              0.27929         *
 * Ni             16     -0.69949              0.09779             -0.34920         *
 * Ni             17      0.49223              0.07014             -0.05077         *
 * Ni             18      0.35013              0.11487              0.07661         *
 * Ni             19     -0.08046             -0.10302             -0.07905         *
 * Ni             20      0.01146              0.20136              0.18768         *
 * Ni             21     -0.34301             -0.04490              0.04016         *
 * Ni             22      0.02808              0.12259             -0.07089         *
 * Ni             23     -0.08807             -0.02106              0.00675         *
 * Ni             24      0.06876             -0.09624              0.14163         *
 * Ni             25     -0.07877              0.20408             -0.04434         *
 * Ni             26      0.20290             -0.10042              0.10466         *
 * Ni             27     -0.34285              0.18484             -0.08735         *
 * Ni             28      0.03841             -0.03761              0.23188         *
 * Ni             29      0.02095             -0.05982              0.07735         *
 * Ni             30      0.41689              0.15561             -0.31608         *
 * Ni             31      0.26777             -0.22541             -0.02481         *
 * Ni             32     -0.17890              0.08329              0.16754         *
 * Ni             33      0.08780              0.08928              0.41338         *
 * Ni             34     -0.01411              0.02978             -0.22980         *
 * Ni             35      0.10681             -0.26458              0.02781         *
 * Ni             36     -0.22592              0.03189              0.06275         *
 * Ni             37     -0.03215             -0.07360             -0.11625         *
 * Ni             38     -0.09041              0.00845              0.01237         *
 * Ni             39      0.17841              0.06159              0.07252         *
 * Ni             40      0.95290             -0.18566             -0.55271         *
 * Ni             41     -0.06244             -0.15867             -0.03682         *
 * Ni             42      0.10252             -0.00858              0.19861         *
 * Ni             43      0.00578             -0.07582              0.05562         *
 * Ni             44     -0.16521              0.08647             -0.07920         *
 * Ni             45      0.04131             -0.17750             -0.07387         *
 * Ni             46      0.24709              0.17831              0.03865         *
 * Ni             47     -0.01714              0.13227             -0.05643         *
 * Ni             48      0.02103              0.01631              0.14340         *
 * Ni             49      0.83578             -0.16927             -0.15947         *
 * Ni             50      0.53778              0.04040             -0.11234         *
 * Ni             51      0.13256             -0.08625              0.12504         *
 * Ni             52      0.16480              0.12096              0.14362         *
 * Ni             53     -0.00220             -0.01428             -0.29780         *
 * Ni             54      0.05363             -0.05555              0.17180         *
 * Ni             55      0.20776              0.24629             -0.01898         *
 * Ni             56      0.03734              0.05164              0.15705         *
 * Ni             57      0.24285             -0.12351             -0.05586         *
 * Ni             58      0.14191              0.08190              0.08621         *
 * Ni             59     -0.02547              0.06306             -0.24978         *
 * Ni             60     -0.05728             -0.06342              0.17925         *
 * Ni             61     -0.17650             -0.03414              0.06425         *
 * Ni             62      0.07716             -0.01829             -0.14653         *
 * Ni             63      0.17577              0.05429              0.25828         *
 * Ni             64      0.11918              0.01578              0.06155         *
 * Ni             65      0.11125             -0.03809              0.05614         *
 * Ni             66     -0.06844              0.11366              0.03915         *
 * Ni             67      0.14154              0.10781             -0.16191         *
 * Ni             68     -0.01097              0.02826             -0.09176         *
 * Ni             69     -0.15843             -0.12717              0.01707         *
 * Ni             70     -0.03269             -0.07822             -0.15567         *
 * Ni             71     -0.18517             -0.13220              0.02863         *
 * Ni             72      0.25810             -0.27121              0.13326         *
 * Ni             73     -0.03204             -0.03895              0.18271         *
 * Ni             74     -0.00828             -0.12207             -0.10007         *
 * Ni             75      0.13343              0.02545              0.29083         *
 * Ni             76      0.12507             -0.02631              0.15301         *
 * Ni             77      0.06534             -0.08127             -0.02725         *
 * Ni             78     -0.21860              0.14893             -0.13465         *
 * Ni             79      0.04721             -0.12094              0.00802         *
 * Ni             80      0.32865              0.01203              0.43703         *
 * Ni             81     -0.09714              0.07776              0.22209         *
 * Ni             82      0.70316              0.01980              0.08995         *
 * Ni             83      0.43971              0.10017              0.35345         *
 * Ni             84     -0.22749             -0.20616              0.28621         *
 * Ni             85     -0.28058              0.15995              0.10972         *
 * Ni             86     -0.04086             -0.07602             -0.06229         *
 * Ni             87     -0.00521             -0.04142             -0.04403         *
 * Ni             88     -0.11477             -0.00435             -0.03155         *
 * Ni             89      0.11869              0.13907              0.03931         *
 * Ni             90     -0.22107             -0.01225             -0.03785         *
 * Ni             91      0.27630             -0.07875              0.02185         *
 * Ni             92      0.80785             -0.27992             -0.17397         *
 * Ni             93      0.40041              0.16379              0.14388         *
 * Ni             94     -0.02085              0.12281              0.21644         *
 * Ni             95     -0.21384             -0.04675              0.10465         *
 * Ni             96      0.02870              0.02288              0.11883         *
 * Ni             97     -0.11419              0.02464              0.18666         *
 * Ni             98      0.25630              0.06684             -0.07220         *
 * Ni             99      0.32123              0.14333             -0.21553         *
 * Ni            100     -0.08139             -0.03625              0.05594         *
 * Ni            101      0.35712              0.03929             -0.06219         *
 * Ni            102     -0.11604             -0.01867              0.08773         *
 * Ni            103     -0.08232              0.06857              0.00908         *
 * Ni            104     -0.14147             -0.03440             -0.25708         *
 * Ni            105      0.03651             -0.03451             -0.15192         *
 * Ni            106      0.04565              0.11127             -0.12692         *
 * Ni            107     -0.33761             -0.05865              0.14316         *
 * Ni            108     -0.00489              0.00729              0.06597         *
 * Ni            109      0.22738              0.10382             -0.16876         *
 * Ni            110     -0.08064             -0.09332              0.06617         *
 * Ni            111     -0.00025              0.07725             -0.10710         *
 * Ni            112     -0.05535             -0.04961             -0.24480         *
 * Ni            113      0.09306              0.12818              0.02435         *
 * Ni            114      0.17452             -0.07084             -0.15045         *
 * Ni            115     -0.06682              0.06861              0.14886         *
 * Ni            116     -0.06511             -0.05558              0.15053         *
 * Ni            117     -0.00797              0.01016             -0.18506         *
 * Ni            118     -0.08142              0.03230             -0.22070         *
 * Ni            119      1.02808              0.02978              0.31350         *
 * Ni            120      0.65460              0.03011              0.28169         *
 * Ni            121     -0.03744             -0.01473             -0.06588         *
 * Ni            122     -0.13852              0.11611              0.20246         *
 * Ni            123      0.15208              0.08130             -0.24233         *
 * Ni            124     -0.09295              0.20064             -0.10962         *
 * Ni            125      0.03032             -0.06388              0.05121         *
 * Ni            126     -0.08345             -0.12006             -0.29249         *
 * Ni            127      0.27136              0.04876             -0.28833         *
 * Ni            128     -0.21959              0.09001              0.20719         *
 * Ni            129     -0.15147             -0.05156              0.07832         *
 * Ni            130     -0.23215              0.14052              0.21914         *
 * Ni            131      0.91549             -0.01660              0.02824         *
 * Ni            132     -0.08528             -0.02345             -0.03358         *
 * Ni            133      0.12031              0.00193             -0.32846         *
 * Ni            134     -0.32793             -0.28468              0.06585         *
 * Ni            135      0.17507              0.11998             -0.24710         *
 * Ni            136     -0.12639             -0.03645              0.00760         *
 * Ni            137      0.03811             -0.14750              0.05868         *
 * Ni            138     -0.09433              0.04444              0.18107         *
 * Ni            139      0.30199             -0.12903             -0.16205         *
 * Ni            140     -0.30264              0.05664              0.17708         *
 * Ni            141     -0.08198              0.00253             -0.04602         *
 * Ni            142     -0.13277             -0.14105              0.08435         *
 * Ni            143      0.42425              0.08092              0.21679         *
 * Ni            144      0.25913              0.16921              0.09065         *
 * Ni            145     -0.09381             -0.07816             -0.04420         *
 * Ni            146      0.21491             -0.02679              0.01500         *
 * Ni            147     -0.10416             -0.04936             -0.01281         *
 * Ni            148     -0.02944              0.15143             -0.19919         *
 * Ni            149     -0.11929             -0.22476              0.02982         *
 * Ni            150     -0.14511              0.01751              0.02743         *
 * Ni            151     -0.04425              0.00885              0.02678         *
 * Ni            152      0.11429              0.00266              0.16141         *
 * Ni            153     -0.01106             -0.10386             -0.10048         *
 * Ni            154     -0.19342              0.12051             -0.04169         *
 * Ni            155      0.00227              0.06294              0.09976         *
 * Ni            156      0.06194             -0.09457             -0.09054         *
 * Ni            157      0.43176             -0.04117             -0.12377         *
 * Ni            158      1.43050              0.06199             -0.31701         *
 * Ni            159      0.02004              0.01990             -0.02584         *
 * Ni            160     -0.07302             -0.14029             -0.20836         *
 * Ni            161      0.10329              0.13885              0.01204         *
 * Ni            162      0.23914             -0.23773             -0.05694         *
 * Ni            163     -0.10123              0.17168             -0.03609         *
 * Ni            164      0.15394             -0.00614             -0.13590         *
 * Ni            165     -0.00453              0.01810              0.07304         *
 * Ni            166      0.08663             -0.02757              0.10589         *
 * Ni            167     -0.25113             -0.07034             -0.19707         *
 * Ni            168      1.02402             -0.12175             -0.10647         *
 * Ni            169      0.48813              0.04724              0.04180         *
 * Ni            170      0.00170             -0.21378             -0.01898         *
 * Ni            171     -0.10459             -0.04102             -0.03577         *
 * Ni            172     -0.00586              0.04467              0.08243         *
 * Ni            173     -0.15539              0.05583              0.10530         *
 * Ni            174      0.12864             -0.23612              0.10730         *
 * Ni            175     -0.01872             -0.11519             -0.12576         *
 * Ni            176     -0.06146             -0.09132             -0.23479         *
 * Ni            177      0.07507              0.14653             -0.08051         *
 * Ni            178      0.71001             -0.30926              0.27438         *
 * Ni            179     -0.26137              0.12806              0.16123         *
 * Ni            180     -0.24425              0.14843             -0.07829         *
 * Ni            181      0.10179             -0.00472             -0.14611         *
 * Ni            182     -0.03630              0.03101             -0.13900         *
 * Ni            183      0.06021              0.05697             -0.17692         *
 *                                                                                  *
 ************************************************************************************
 LBFGS: finished iteration     0 with enthalpy= -2.59993966E+005 eV
  
 +-----------+-----------------+-----------------+------------+-----+ <-- LBFGS
 | Parameter |      value      |    tolerance    |    units   | OK? | <-- LBFGS
 +-----------+-----------------+-----------------+------------+-----+ <-- LBFGS
 |  dE/ion   |   0.000000E+000 |   2.000000E-005 |         eV | No  | <-- LBFGS
 |  |F|max   |   3.320109E+000 |   5.000000E-002 |       eV/A | No  | <-- LBFGS
 |  |dR|max  |   0.000000E+000 |   1.000000E-003 |          A | No  | <-- LBFGS
 +-----------+-----------------+-----------------+------------+-----+ <-- LBFGS
  

================================================================================
 Starting LBFGS iteration          1 ...
================================================================================
  
 +------------+-------------+-------------+-----------------+ <-- min LBFGS
 |    Step    |   lambda    |   F.delta'  |    enthalpy     | <-- min LBFGS
 +------------+-------------+-------------+-----------------+ <-- min LBFGS
 |  previous  |    0.000000 |    5.924201 |  -259993.965793 | <-- min LBFGS
 +------------+-------------+-------------+-----------------+ <-- min LBFGS
  

--------------------------------------------------------------------------------
 LBFGS: starting iteration         1 with trial guess (lambda=  1.000000)
--------------------------------------------------------------------------------
 
                           -------------------------------
                                     Cell Contents
                           -------------------------------
 
            xxxxxxxxxxxxxxxxxxxxxxxxxxxxxxxxxxxxxxxxxxxxxxxxxxxxxxxxxxxxxxxxx
            x  Element         Atom        Fractional coordinates of atoms  x
            x                 Number           u          v          w      x
            x---------------------------------------------------------------x
            x  Al                1         0.943087   0.188069   0.313562   x
            x  Al                2         0.942201   0.439941   0.313667   x
            x  Al                3         0.946499   0.689301   0.307693   x
            x  Al                4         0.943407   0.937573   0.312519   x
            x  Al                5         0.941852   0.186211   0.562465   x
            x  Al                6         0.941304   0.440827   0.562007   x
            x  Al                7         0.948550   0.691057   0.563821   x
            x  Al                8         0.945347   0.936495   0.559696   x
            x  Al                9         0.943684   0.187874   0.811928   x
            x  Al               10         0.942046   0.439817   0.810400   x
            x  Al               11         0.945575   0.688368   0.816377   x
            x  Al               12         0.948145   0.937674   0.818569   x
            x  Al               13         0.944895   0.189075   0.062316   x
            x  Al               14         0.943139   0.438818   0.063560   x
            x  Al               15         0.943251   0.687973   0.062233   x
            x  Al               16         0.943862   0.938432   0.061051   x
            x  Al               17         0.701006   0.064478   0.182491   x
            x  Al               18         0.427583   0.937186   0.058967   x
            x  Al               19         0.562971   0.071290   0.056864   x
            x  Al               20         0.174952   0.055280   0.430935   x
            x  Al               21         0.193790   0.937904   0.060807   x
            x  Al               22         0.174346   0.693918   0.062401   x
            x  Al               23         0.314664   0.058875   0.304894   x
            x  Al               24         0.053357   0.945315   0.184210   x
            x  Al               25         0.694346   0.814051   0.188293   x
            x  Al               26         0.564187   0.809337   0.055319   x
            x  Al               27         0.307605   0.573170   0.324075   x
            x  Al               28         0.177157   0.560323   0.190605   x
            x  Al               29         0.699269   0.309734   0.185798   x
            x  Al               30         0.442924   0.567142   0.182110   x
            x  Al               31         0.310872   0.317120   0.075263   x
            x  Al               32         0.569272   0.068341   0.822784   x
            x  Al               33         0.061670   0.937266   0.930163   x
            x  Al               34         0.437184   0.689221   0.814165   x
            x  Al               35         0.308170   0.687779   0.937738   x
            x  Al               36         0.695081   0.558130   0.944661   x
            x  Al               37         0.563897   0.555589   0.817678   x
            x  Al               38         0.308978   0.445412   0.933187   x
            x  Al               39         0.072833   0.565285   0.808231   x
            x  Al               40         0.698862   0.315002   0.938495   x
            x  Al               41         0.688949   0.565791   0.182544   x
            x  Al               42         0.553965   0.440676   0.676296   x
            x  Al               43         0.552615   0.310321   0.814611   x
            x  Al               44         0.309166   0.186297   0.933702   x
            x  Al               45         0.066248   0.316185   0.821574   x
            x  Al               46         0.691110   0.940210   0.561918   x
            x  Al               47         0.811904   0.937546   0.696085   x
            x  Al               48         0.560429   0.934774   0.433164   x
            x  Al               49         0.440551   0.062128   0.689674   x
            x  Al               50         0.313659   0.054662   0.557181   x
            x  Al               51         0.804246   0.689424   0.688238   x
            x  Al               52         0.443107   0.827184   0.690869   x
            x  Al               53         0.572815   0.689737   0.681275   x
            x  Al               54         0.313859   0.819141   0.561899   x
            x  Al               55         0.697000   0.443174   0.551816   x
            x  Al               56         0.197788   0.434205   0.547810   x
            x  Al               57         0.319868   0.575255   0.559556   x
            x  Al               58         0.061988   0.437296   0.677359   x
            x  Al               59         0.696835   0.306195   0.687104   x
            x  Al               60         0.555880   0.301277   0.552554   x
            x  Al               61         0.188919   0.193947   0.558171   x
            x  Al               62         0.061870   0.189612   0.687998   x
            x  Al               63         0.560109   0.066781   0.304706   x
            x  Al               64         0.807315   0.693232   0.437157   x
            x  Al               65         0.565204   0.694348   0.435754   x
            x  Al               66         0.315366   0.813183   0.304401   x
            x  Al               67         0.179628   0.816322   0.439658   x
            x  Al               68         0.051810   0.810451   0.311629   x
            x  Al               69         0.561908   0.301133   0.316093   x
            x  Al               70         0.553319   0.314776   0.064362   x
            x  Al               71         0.694835   0.440839   0.322653   x
            x  Al               72         0.433732   0.437478   0.324707   x
            x  Ni                1         0.940569   0.312478   0.438346   x
            x  Ni                2         0.940252   0.569991   0.436539   x
            x  Ni                3         0.940382   0.810675   0.435970   x
            x  Ni                4         0.941290   0.061961   0.437224   x
            x  Ni                5         0.818017   0.313715   0.810921   x
            x  Ni                6         0.938411   0.567407   0.688646   x
            x  Ni                7         0.938898   0.813234   0.690375   x
            x  Ni                8         0.940276   0.059421   0.688869   x
            x  Ni                9         0.940695   0.314703   0.936286   x
            x  Ni               10         0.939866   0.562671   0.937717   x
            x  Ni               11         0.941866   0.812286   0.939433   x
            x  Ni               12         0.942680   0.064231   0.938015   x
            x  Ni               13         0.939916   0.314682   0.189038   x
            x  Ni               14         0.940635   0.563451   0.186985   x
            x  Ni               15         0.941074   0.814062   0.185350   x
            x  Ni               16         0.940740   0.062555   0.186939   x
            x  Ni               17         0.061083   0.187694   0.437149   x
            x  Ni               18         0.062063   0.312245   0.313801   x
            x  Ni               19         0.188726   0.310124   0.432755   x
            x  Ni               20         0.308490   0.178664   0.433740   x
            x  Ni               21         0.312382   0.311936   0.312340   x
            x  Ni               22         0.185495   0.184361   0.311671   x
            x  Ni               23         0.434792   0.306388   0.433830   x
            x  Ni               24         0.563596   0.180507   0.434805   x
            x  Ni               25         0.434907   0.184185   0.309067   x
            x  Ni               26         0.689648   0.310062   0.437470   x
            x  Ni               27         0.817044   0.184772   0.438226   x
            x  Ni               28         0.688124   0.567530   0.435009   x
            x  Ni               29         0.693358   0.185354   0.310997   x
            x  Ni               30         0.062366   0.437964   0.439909   x
            x  Ni               31         0.062451   0.565097   0.317755   x
            x  Ni               32         0.187473   0.569187   0.441644   x
            x  Ni               33         0.312294   0.447272   0.195652   x
            x  Ni               34         0.190759   0.440762   0.321718   x
            x  Ni               35         0.438917   0.571057   0.435133   x
            x  Ni               36         0.689147   0.691005   0.559765   x
            x  Ni               37         0.820482   0.441494   0.437661   x
            x  Ni               38         0.816433   0.567221   0.311978   x
            x  Ni               39         0.562915   0.563652   0.311245   x
            x  Ni               40         0.059038   0.691101   0.440250   x
            x  Ni               41         0.312595   0.699566   0.437806   x
            x  Ni               42         0.183214   0.693981   0.312778   x
            x  Ni               43         0.438895   0.815800   0.433605   x
            x  Ni               44         0.689480   0.688995   0.309863   x
            x  Ni               45         0.563617   0.815732   0.306332   x
            x  Ni               46         0.688017   0.817749   0.433714   x
            x  Ni               47         0.817139   0.569328   0.561866   x
            x  Ni               48         0.817020   0.813765   0.311169   x
            x  Ni               49         0.055487   0.936659   0.435791   x
            x  Ni               50         0.057163   0.063101   0.309833   x
            x  Ni               51         0.181640   0.934210   0.308261   x
            x  Ni               52         0.309994   0.935104   0.430611   x
            x  Ni               53         0.180757   0.814763   0.187317   x
            x  Ni               54         0.310721   0.936963   0.184961   x
            x  Ni               55         0.437459   0.058055   0.432642   x
            x  Ni               56         0.689133   0.941807   0.307927   x
            x  Ni               57         0.439467   0.937957   0.304616   x
            x  Ni               58         0.688569   0.059142   0.434637   x
            x  Ni               59         0.816072   0.936422   0.437012   x
            x  Ni               60         0.818070   0.061909   0.312479   x
            x  Ni               61         0.565548   0.940115   0.177870   x
            x  Ni               62         0.062899   0.312870   0.560412   x
            x  Ni               63         0.187316   0.314738   0.684112   x
            x  Ni               64         0.311575   0.185989   0.684417   x
            x  Ni               65         0.315079   0.309948   0.557050   x
            x  Ni               66         0.438133   0.311228   0.682201   x
            x  Ni               67         0.564044   0.187283   0.687851   x
            x  Ni               68         0.434282   0.180009   0.560382   x
            x  Ni               69         0.818662   0.184958   0.687401   x
            x  Ni               70         0.815865   0.312159   0.560992   x
            x  Ni               71         0.691853   0.185033   0.561126   x
            x  Ni               72         0.063088   0.564302   0.561261   x
            x  Ni               73         0.190335   0.563211   0.678641   x
            x  Ni               74         0.314462   0.440330   0.680613   x
            x  Ni               75         0.440945   0.568435   0.686638   x
            x  Ni               76         0.430490   0.439048   0.550676   x
            x  Ni               77         0.561484   0.564980   0.558046   x
            x  Ni               78         0.563288   0.436126   0.437859   x
            x  Ni               79         0.685412   0.558841   0.685677   x
            x  Ni               80         0.939276   0.313670   0.686230   x
            x  Ni               81         0.814455   0.439853   0.684161   x
            x  Ni               82         0.062324   0.689571   0.686635   x
            x  Ni               83         0.059987   0.815289   0.564218   x
            x  Ni               84         0.187803   0.817397   0.685386   x
            x  Ni               85         0.316610   0.694409   0.686264   x
            x  Ni               86         0.187931   0.694122   0.563551   x
            x  Ni               87         0.439572   0.940009   0.561838   x
            x  Ni               88         0.442388   0.697784   0.564352   x
            x  Ni               89         0.688052   0.816901   0.690324   x
            x  Ni               90         0.816120   0.815058   0.564472   x
            x  Ni               91         0.564814   0.819134   0.562249   x
            x  Ni               92         0.060091   0.941474   0.688021   x
            x  Ni               93         0.061032   0.065191   0.563490   x
            x  Ni               94         0.186901   0.064947   0.683864   x
            x  Ni               95         0.312789   0.940930   0.688566   x
            x  Ni               96         0.184907   0.939462   0.561017   x
[...]
             Al 55 -- Ni 77                  0.17        2.59815
             Al 47 -- Ni 90                  0.17        2.59833
            Ni 12  -- Ni 101                 0.02        2.59839
            Ni 119 -- Ni 158                -0.00        2.59850
            Ni 43  -- Ni 57                 -0.01        2.59855
             Al 46 -- Ni 99                  0.13        2.59917
            Ni 63  -- Ni 65                  0.01        2.59936
            Ni 29  -- Ni 154                 0.03        2.59970
             Al 28 -- Ni 159                 0.18        2.59979
             Al 71 -- Ni 167                 0.18        2.59980
            Ni 5   -- Ni 116                -0.00        2.59992
             Al 41 -- Ni 39                  0.16        2.59996
             Al 7  -- Ni 6                   0.19        2.60046
            Ni 43  -- Ni 87                  0.01        2.60064
             Al 3  -- Ni 15                  0.18        2.60081
            Ni 1   -- Ni 27                  0.02        2.60088
             Al 13 -- Ni 178                 0.19        2.60111
             Al 11 -- Ni 82                  0.19        2.60116
             Al 24 -- Ni 15                  0.16        2.60117
            Ni 16  -- Ni 143                 0.03        2.60156
            Ni 119 -- Ni 123                 0.08        2.60196
             Al 23 -- Ni 51                  0.18        2.60206
             Al 32 -- Ni 99                  0.18        2.60208
            Ni 115 -- Ni 147                 0.10        2.60222
            Ni 45  -- Ni 61                  0.11        2.60241
            Ni 129 -- Ni 130                 0.09        2.60265
            Ni 16  -- Ni 60                  0.04        2.60267
             Al 52 -- Al 54                  0.26        2.60292
            Ni 56  -- Ni 61                  0.04        2.60299
            Ni 110 -- Ni 119                 0.03        2.60312
            Ni 16  -- Ni 178                -0.02        2.60343
             Al 23 -- Ni 22                  0.15        2.60346
            Ni 2   -- Ni 38                  0.04        2.60349
            Ni 87  -- Ni 95                 -0.07        2.60365
            Ni 29  -- Ni 150                -0.10        2.60390
            Ni 8   -- Ni 141                -0.01        2.60434
            Ni 15  -- Ni 168                 0.02        2.60440
            Ni 27  -- Ni 100                 0.09        2.60468
             Al 12 -- Al 33                  0.27        2.60475
            Ni 154 -- Ni 156                 0.05        2.60518
             Al 6  -- Ni 62                  0.19        2.60535
             Al 36 -- Ni 130                 0.17        2.60535
             Al 61 -- Al 62                  0.26        2.60542
            Ni 114 -- Ni 147                 0.01        2.60555
             Al 47 -- Ni 7                   0.16        2.60577
            Ni 113 -- Ni 115                 0.11        2.60584
            Ni 26  -- Ni 78                 -0.10        2.60588
            Ni 121 -- Ni 169                -0.02        2.60597
            Ni 4   -- Ni 59                  0.01        2.60650
            Ni 7   -- Ni 92                  0.06        2.60660
            Ni 35  -- Ni 41                  0.05        2.60682
            Ni 20  -- Ni 21                  0.11        2.60697
            Ni 9   -- Ni 116                 0.06        2.60717
             Al 43 -- Ni 118                 0.14        2.60755
            Ni 149 -- Ni 164                 0.02        2.60786
             Al 8  -- Ni 90                  0.18        2.60799
            Ni 113 -- Ni 171                 0.06        2.60802
            Ni 33  -- Ni 149                 0.06        2.60809
             Al 15 -- Ni 14                  0.18        2.60811
             Al 3  -- Ni 3                   0.16        2.60903
             Al 12 -- Ni 129                 0.13        2.60913
             Al 9  -- Ni 101                 0.17        2.60916
            Ni 114 -- Ni 115                 0.02        2.60928
            Ni 69  -- Ni 70                  0.03        2.60975
             Al 61 -- Ni 93                  0.19        2.60993
             Al 40 -- Ni 115                 0.15        2.61000
            Ni 31  -- Ni 157                 0.01        2.61006
            Ni 103 -- Ni 178                 0.14        2.61017
             Al 66 -- Ni 52                  0.18        2.61024
             Al 35 -- Ni 122                 0.15        2.61073
             Al 64 -- Ni 2                   0.16        2.61084
            Ni 53  -- Ni 159                 0.04        2.61088
            Ni 166 -- Ni 177                 0.08        2.61105
            Ni 15  -- Ni 175                 0.08        2.61132
            Ni 73  -- Ni 123                 0.06        2.61246
             Al 1  -- Ni 16                  0.17        2.61263
            Ni 3   -- Ni 83                  0.01        2.61290
             Al 40 -- Ni 151                 0.15        2.61329
            Ni 11  -- Ni 128                 0.09        2.61349
            Ni 19  -- Ni 62                 -0.02        2.61376
            Ni 54  -- Ni 170                 0.06        2.61394
             Al 21 -- Ni 178                 0.17        2.61407
            Ni 182 -- Ni 183                -0.04        2.61420
            Ni 28  -- Ni 78                  0.04        2.61436
            Ni 73  -- Ni 85                  0.12        2.61453
            Ni 163 -- Ni 177                 0.00        2.61468
            Ni 52  -- Ni 57                  0.03        2.61476
            Ni 47  -- Ni 79                  0.04        2.61496
            Ni 87  -- Ni 97                 -0.01        2.61497
            Ni 72  -- Ni 82                  0.03        2.61522
            Ni 67  -- Ni 68                  0.04        2.61528
             Al 53 -- Ni 126                 0.16        2.61540
            Ni 137 -- Ni 139                 0.01        2.61544
             Al 15 -- Ni 10                  0.18        2.61545
            Ni 25  -- Ni 150                -0.00        2.61547
             Al 3  -- Al 68                  0.24        2.61593
             Al 44 -- Ni 104                 0.14        2.61610
             Al 38 -- Ni 164                 0.16        2.61631
            Ni 3   -- Ni 59                  0.03        2.61657
             Al 26 -- Ni 181                 0.15        2.61732
            Ni 12  -- Ni 107                 0.08        2.61739
             Al 15 -- Ni 169                 0.20        2.61766
            Ni 52  -- Ni 96                 -0.08        2.61779
            Ni 51  -- Ni 148                 0.06        2.61870
            Ni 66  -- Ni 76                 -0.01        2.61900
             Al 22 -- Al 35                  0.26        2.62016
             Al 48 -- Ni 98                  0.15        2.62051
             Al 39 -- Ni 6                   0.16        2.62061
            Ni 124 -- Ni 125                 0.04        2.62086
             Al 36 -- Ni 125                 0.17        2.62087
             Al 50 -- Ni 64                  0.12        2.62096
            Ni 143 -- Ni 178                 0.09        2.62106
            Ni 7   -- Ni 82                  0.06        2.62108
             Al 18 -- Ni 61                  0.15        2.62115
            Ni 126 -- Ni 137                 0.13        2.62133
            Ni 40  -- Ni 83                 -0.01        2.62137
             Al 63 -- Ni 61                  0.18        2.62165
            Ni 74  -- Ni 111                 0.12        2.62179
            Ni 157 -- Ni 158                 0.02        2.62192
             Al 68 -- Ni 3                   0.14        2.62233
            Ni 54  -- Ni 179                 0.04        2.62243
             Al 26 -- Ni 61                  0.17        2.62269
            Ni 110 -- Ni 111                 0.00        2.62322
            Ni 49  -- Ni 96                  0.05        2.62356
             Al 9  -- Ni 80                  0.19        2.62374
             Al 21 -- Ni 169                 0.15        2.62378
             Al 43 -- Ni 108                 0.14        2.62382
            Ni 41  -- Ni 161                -0.01        2.62421
            Ni 110 -- Ni 123                -0.02        2.62432
             Al 6  -- Ni 6                   0.17        2.62443
            Ni 6   -- Ni 47                  0.04        2.62473
             Al 2  -- Ni 2                   0.19        2.62491
             Al 25 -- Ni 61                  0.17        2.62525
            Ni 95  -- Ni 138                -0.01        2.62601
            Ni 33  -- Ni 164                 0.03        2.62630
            Ni 19  -- Ni 65                  0.07        2.62658
            Ni 28  -- Ni 37                  0.02        2.62673
             Al 10 -- Ni 109                 0.16        2.62736
            Ni 2   -- Ni 30                  0.05        2.62801
             Al 4  -- Ni 3                   0.16        2.62809
            Ni 24  -- Ni 26                 -0.01        2.62818
            Ni 26  -- Ni 37                 -0.01        2.62831
             Al 22 -- Ni 159                 0.16        2.62892
            Ni 69  -- Ni 108                 0.07        2.62957
             Al 14 -- Ni 167                 0.17        2.63013
             Al 11 -- Ni 6                   0.20        2.63033
             Al 62 -- Ni 62                  0.14        2.63088
             Al 46 -- Al 48                  0.25        2.63205
             Al 38 -- Ni 104                 0.15        2.63246
             Al 52 -- Ni 88                  0.16        2.63269
            Ni 69  -- Ni 80                  0.08        2.63309
            Ni 40  -- Ni 72                  0.11        2.63362
             Al 5  -- Ni 8                   0.18        2.63455
             Al 49 -- Al 50                  0.25        2.63520
            Ni 74  -- Ni 75                  0.06        2.63613
             Al 37 -- Al 42                  0.22        2.63641
             Al 14 -- Ni 10                  0.18        2.63645
             Al 3  -- Ni 40                  0.14        2.63655
            Ni 102 -- Ni 105                 0.02        2.63655
            Ni 24  -- Ni 25                 -0.01        2.63706
             Al 56 -- Ni 62                  0.15        2.63849
            Ni 116 -- Ni 117                 0.02        2.63850
            Ni 34  -- Ni 157                 0.05        2.63873
             Al 24 -- Al 68                  0.22        2.63897
             Al 36 -- Al 37                  0.25        2.63900
             Al 15 -- Ni 15                  0.18        2.63927
             Al 41 -- Ni 162                 0.16        2.63968
             Al 48 -- Ni 58                  0.12        2.63969
            Ni 36  -- Ni 89                 -0.02        2.63985
            Ni 99  -- Ni 142                -0.01        2.64021
             Al 11 -- Ni 117                 0.15        2.64162
             Al 16 -- Ni 178                 0.13        2.64164
            Ni 91  -- Ni 97                  0.04        2.64191
            Ni 23  -- Ni 24                 -0.05        2.64298
            Ni 79  -- Ni 130                -0.01        2.64314
            Ni 89  -- Ni 130                 0.03        2.64550
             Al 19 -- Ni 181                 0.12        2.64563
             Al 61 -- Ni 94                  0.13        2.64565
            Ni 28  -- Ni 47                 -0.02        2.64625
             Al 20 -- Ni 20                  0.15        2.64632
             Al 28 -- Ni 42                  0.16        2.64647
            Ni 37  -- Ni 47                  0.04        2.64650
            Ni 102 -- Ni 109                 0.08        2.64672
            Ni 119 -- Ni 169                 0.07        2.64693
            Ni 23  -- Ni 78                 -0.03        2.64763
             Al 60 -- Ni 76                  0.14        2.64838
            Ni 110 -- Ni 112                 0.02        2.64885
            Ni 15  -- Ni 176                 0.04        2.64906
            Ni 106 -- Ni 147                 0.02        2.65087
            Ni 159 -- Ni 172                 0.05        2.65134
             Al 32 -- Ni 67                  0.16        2.65188
            Ni 48  -- Ni 56                  0.08        2.65258
             Al 20 -- Ni 52                  0.13        2.65361
             Al 17 -- Ni 150                 0.14        2.65625
             Al 63 -- Ni 58                  0.14        2.65651
             Al 52 -- Ni 85                  0.13        2.65706
            Ni 35  -- Ni 88                  0.07        2.65765
            Ni 101 -- Ni 102                 0.06        2.65826
            Ni 80  -- Ni 81                  0.07        2.65964
            Ni 102 -- Ni 112                 0.01        2.65972
            Ni 133 -- Ni 179                -0.03        2.66009
             Al 72 -- Ni 39                  0.15        2.66089
            Ni 36  -- Ni 79                  0.00        2.66552
             Al 56 -- Ni 63                  0.12        2.66553
            Ni 139 -- Ni 151                -0.00        2.66615
             Al 32 -- Al 49                  0.25        2.66640
            Ni 50  -- Ni 51                  0.03        2.66819
            Ni 117 -- Ni 118                 0.11        2.66868
             Al 48 -- Al 63                  0.23        2.67152
             Al 17 -- Ni 61                  0.14        2.67183
            Ni 153 -- Ni 166                 0.07        2.67188
             Al 21 -- Al 33                  0.23        2.67241
             Al 27 -- Al 72                  0.29        2.67633
             Al 21 -- Al 24                  0.22        2.67642
             Al 34 -- Al 37                  0.19        2.67852
            Ni 168 -- Ni 169                 0.04        2.67875
             Al 45 -- Ni 80                  0.14        2.67895
            Ni 33  -- Ni 145                 0.07        2.67896
             Al 36 -- Ni 115                 0.14        2.68033
             Al 5  -- Ni 80                  0.15        2.68228
             Al 69 -- Al 72                  0.19        2.68482
             Al 22 -- Al 28                  0.22        2.68654
             Al 70 -- Ni 156                 0.11        2.68722
             Al 30 -- Ni 162                 0.17        2.68831
             Al 34 -- Al 52                  0.20        2.68848
             Al 22 -- Ni 171                 0.10        2.69237
            Ni 133 -- Ni 170                -0.02        2.69327
             Al 42 -- Ni 118                 0.14        2.69553
             Al 17 -- Al 63                  0.22        2.69601
             Al 3  -- Al 64                  0.22        2.69609
            Ni 116 -- Ni 118                 0.09        2.69616
            Ni 33  -- Ni 160                 0.03        2.69646
             Al 6  -- Ni 80                  0.15        2.69646
             Al 6  -- Al 58                  0.22        2.69648
             Al 51 -- Ni 7                   0.13        2.69813
            Ni 70  -- Ni 80                  0.03        2.70527
             Al 45 -- Al 62                  0.21        2.70618
             Al 56 -- Ni 72                  0.12        2.70875
             Al 17 -- Al 19                  0.22        2.71006
             Al 56 -- Al 58                  0.19        2.71056
             Al 72 -- Ni 162                 0.12        2.71058
             Al 7  -- Ni 90                  0.13        2.71314
            Ni 162 -- Ni 164                 0.04        2.71341
             Al 9  -- Al 62                  0.23        2.71364
            Ni 49  -- Ni 93                  0.04        2.71715
             Al 5  -- Al 62                  0.22        2.71718
             Al 56 -- Al 57                  0.27        2.71802
             Al 27 -- Al 28                  0.17        2.71870
             Al 11 -- Al 39                  0.20        2.72138
            Ni 162 -- Ni 163                 0.04        2.72197
             Al 25 -- Al 26                  0.21        2.72241
             Al 50 -- Al 61                  0.18        2.72363
             Al 20 -- Al 23                  0.20        2.72607
             Al 39 -- Al 58                  0.20        2.72864
             Al 11 -- Al 51                  0.22        2.73099
             Al 20 -- Al 50                  0.21        2.73116
             Al 18 -- Al 19                  0.19        2.73121
             Al 45 -- Al 58                  0.20        2.73232
             Al 42 -- Al 60                  0.25        2.73601
             Al 41 -- Al 71                  0.20        2.73881
             Al 16 -- Al 24                  0.18        2.73899
             Al 18 -- Al 26                  0.20        2.74039
             Al 36 -- Ni 118                 0.13        2.75121
             Al 29 -- Al 70                  0.19        2.75374
             Al 4  -- Al 24                  0.18        2.75593
             Al 40 -- Al 43                  0.19        2.75608
             Al 52 -- Al 53                  0.18        2.75910
             Al 34 -- Al 53                  0.17        2.76424
             Al 20 -- Al 61                  0.17        2.76443
             Al 4  -- Al 68                  0.17        2.76699
            Ni 75  -- Ni 76                  0.03        2.76740
             Al 69 -- Al 71                  0.17        2.76825
             Al 31 -- Al 38                  0.18        2.76890
             Al 42 -- Al 43                  0.18        2.76905
             Al 37 -- Al 53                  0.16        2.77725
             Al 66 -- Al 67                  0.18        2.78062
             Al 56 -- Ni 73                  0.10        2.78093
             Al 16 -- Al 33                  0.17        2.78123
             Al 8  -- Al 47                  0.19        2.78424
             Al 40 -- Al 70                  0.18        2.78477
             Al 29 -- Al 69                  0.17        2.78746
             Al 29 -- Al 71                  0.17        2.79138
             Al 7  -- Al 51                  0.21        2.79328
             Al 42 -- Al 55                  0.18        2.80113
             Al 30 -- Al 72                  0.16        2.80286
             Al 7  -- Al 64                  0.17        2.80368
             Al 51 -- Ni 6                   0.11        2.81418
             Al 31 -- Al 44                  0.15        2.82077
             Al 10 -- Al 45                  0.16        2.82293
             Al 10 -- Al 39                  0.16        2.84020
             Al 55 -- Al 59                  0.16        2.84116
             Al 27 -- Al 30                  0.13        2.84847
             Al 43 -- Al 59                  0.15        2.84888
             Al 9  -- Al 45                  0.13        2.85126
             Al 10 -- Al 58                  0.14        2.86900
             Al 59 -- Al 60                  0.16        2.89786
             Al 55 -- Al 60                  0.11        2.93746
             Al 42 -- Al 59                  0.12        2.96522
======================================================================
 

Writing analysis data to castep.castep_bin

Writing model to castep.check
 
 A BibTeX formatted list of references used in this run has been written to 
 castep.bib
 
Initialisation time =     11.81 s
Calculation time    =  14487.58 s
Finalisation time   =      6.72 s
Total time          =  14506.11 s
Peak Memory Use     = 2079768 kB
  
Overall parallel efficiency rating: Good (72%)                                  
  
Data was distributed by:-
G-vector (48-way); efficiency rating: Good (73%)                                
