 +-------------------------------------------------+
 |                                                 |
 |      CCC   AA    SSS  TTTTT  EEEEE  PPPP        |
 |     C     A  A  S       T    E      P   P       |
 |     C     AAAA   SS     T    EEE    PPPP        |
 |     C     A  A     S    T    E      P           |
 |      CCC  A  A  SSS     T    EEEEE  P           |
 |                                                 |
 +-------------------------------------------------+
 |                                                 |
 | Welcome to Academic Release CASTEP version 20.11|          
 | Ab Initio Total Energy Program                  |
 |                                                 |
 | Authors:                                        |
 | M. Segall, M. Probert, C. Pickard, P. Hasnip,   |
 | S. Clark, K. Refson, J. R. Yates, M. Payne      |
 |                                                 |
 | Contributors:                                   |
 | P. Lindan, P. Haynes, J. White, V. Milman,      |
 | N. Govind, M. Gibson, P. Tulip, V. Cocula,      |
 | B. Montanari, D. Quigley, M. Glover,            |
 | L. Bernasconi, A. Perlov, M. Plummer,           |
 | E. McNellis, J. Meyer, J. Gale, D. Jochym       |
 | J. Aarons, B. Walker, R. Gillen, D. Jones       |
 | T. Green, I. J. Bush, C. J. Armstrong,          |
 | E. J. Higgins, E. L. Brown, M. S. McFly,        |
 | J. Wilkins, B-C. Shih, P. J. P. Byrne,          |
 | R. J. Maurer, J. C. Womack, J. Dziedzic,        |
 | J. R. Kermode, A. Bartok-Partay                 |
 |                                                 |
 | Copyright (c) 2000 - 2020                       |
 |                                                 |
 |     Distributed under license from Cambridge    |
 |     Enterprise for academic use only.           |
 |                                                 |
 | Please cite                                     |
 |                                                 |
 |     "First principles methods using CASTEP"     |
 |                                                 |
 |         Zeitschrift fuer Kristallographie       |
 |           220(5-6) pp. 567-570 (2005)           |
 |                                                 |
 | S. J. Clark, M. D. Segall, C. J. Pickard,       |
 | P. J. Hasnip, M. J. Probert, K. Refson,         |
 | M. C. Payne                                     |
 |                                                 |
 |       in all publications arising from          |
 |              your use of CASTEP                 |
 |                                                 |
 +-------------------------------------------------+
 |                                                 |
 |              http://www.castep.org              |
 |                                                 |
 +-------------------------------------------------+
 
 
 
 Compiled for linux_x86_64_ifort on Wed, 25 Aug 2021 18:50:38 +0100
 from code version e772bf432+  HEAD  Sat Apr 3 17:41:32 2021 +0100
 Compiler: Intel Fortran 19.0.5.281; Optimisation: fast
 MATHLIBS: Intel MKL(2019.0.5) (LAPACK version 3.7.0)
 FFT Lib : mkl
 Fundamental constants values: CODATA 2014
 
 Run started: Thu, 09 Mar 2023 16:07:25 +0000
 
 Atomic calculation performed for Al: 1s2 2s2 2p6 3s2 3p1
 
 Converged in 52 iterations to an ae energy of -6606.982 eV
 
   ============================================================                
   | Pseudopotential Report - Date of generation  9-03-2023   |                
   ------------------------------------------------------------                
   | Element: Al Ionic charge:  3.00 Level of theory: RPBE    |                
   | Atomic Solver: Koelling-Harmon                           |                
   |                                                          |                
   |               Reference Electronic Structure             |                
   |         Orbital         Occupation         Energy        |                
   |            3s              2.000           -0.284        |                
   |            3p              1.000           -0.100        |                
   |                                                          |                
   |                 Pseudopotential Definition               |                
   |        Beta     l      e      Rc     scheme   norm       |                
   |          1      0   -0.284   2.192     qc      0         |                
   |          2      0    0.250   2.192     qc      0         |                
   |          3      1   -0.100   2.192     qc      0         |                
   |          4      1    0.250   2.192     qc      0         |                
   |          5      2    0.000   2.000     qc      0         |                
   |          6      2    0.250   2.000     qc      0         |                
   |         loc     3    0.000   2.192     pn      0         |                
   |                                                          |                
   | Augmentation charge Rinner = 1.398                       |                
   | Partial core correction Rc = 1.398                       |                
   ------------------------------------------------------------                
   | "3|2.2|2.2|1.4|4|5|5|30:31:32U2U2"                       |                
   ------------------------------------------------------------                
   |      Author: Chris J. Pickard, Cambridge University      |                
   ============================================================                
 
 Atomic calculation performed for Ni: 1s2 2s2 2p6 3s2 3p6 3d8 4s2
 
 Converged in 109 iterations to an ae energy of -41381.414 eV
 
   ============================================================                
   | Pseudopotential Report - Date of generation  9-03-2023   |                
   ------------------------------------------------------------                
   | Element: Ni Ionic charge: 10.00 Level of theory: RPBE    |                
   | Atomic Solver: Koelling-Harmon                           |                
   |                                                          |                
   |               Reference Electronic Structure             |                
   |         Orbital         Occupation         Energy        |                
   |            3d              8.000           -0.324        |                
   |            4s              2.000           -0.204        |                
   |                                                          |                
   |                 Pseudopotential Definition               |                
   |        Beta     l      e      Rc     scheme   norm       |                
   |          1      0   -0.204   2.401     qc      0         |                
   |          2      0    0.250   2.401     qc      0         |                
   |          3      1    0.000   2.401     qc      0         |                
   |          4      1    0.250   2.401     qc      0         |                
   |          5      2   -0.324   1.999     qc      0         |                
   |          6      2    0.250   1.999     qc      0         |                
   |         loc     3    0.000   2.401     pn      0         |                
   |                                                          |                
   | Augmentation charge Rinner = 1.001                       |                
   | Partial core correction Rc = 1.001                       |                
   ------------------------------------------------------------                
   | "3|2.4|2.4|1.0|8|9|10|40:41:32U2U2(qc=5.5)"              |                
   ------------------------------------------------------------                
   |      Author: Chris J. Pickard, Cambridge University      |                
   ============================================================                
 
 Pseudo atomic calculation performed for Al 3s2 3p1
 
 Converged in 13 iterations to a total energy of -107.6592 eV
 
 Pseudo atomic calculation performed for Ni 3d8 4s2
 
 Converged in 41 iterations to a total energy of -1369.7891 eV
 Calculation parallelised over 48 processes.
 Data is distributed by G-vector(48-way)

 ************************************ Title ************************************
 

 ***************************** General Parameters ******************************
  
 output verbosity                               : normal  (1)
 write checkpoint data to                       : castep.check
 type of calculation                            : geometry optimization
 stress calculation                             : off
 density difference calculation                 : off
 electron localisation func (ELF) calculation   : off
 Hirshfeld analysis                             : off
 molecular orbital projected DOS                : off
 deltaSCF calculation                           : off
 unlimited duration calculation
 timing information                             : on
 memory usage estimate                          : on
 write extra output files                       : on
 write final potential to formatted file        : off
 write final density to formatted file          : off
 write BibTeX reference list                    : on
 write OTFG pseudopotential files               : on
 write electrostatic potential file             : on
 write bands file                               : on
 checkpoint writing                             : both castep_bin and check files
  
 output         length unit                     : A
 output           mass unit                     : amu
 output           time unit                     : ps
 output         charge unit                     : e
 output           spin unit                     : hbar/2
 output         energy unit                     : eV
 output          force unit                     : eV/A
 output       velocity unit                     : A/ps
 output       pressure unit                     : GPa
 output     inv_length unit                     : 1/A
 output      frequency unit                     : cm-1
 output force constant unit                     : eV/A**2
 output         volume unit                     : A**3
 output   IR intensity unit                     : (D/A)**2/amu
 output         dipole unit                     : D
 output         efield unit                     : eV/A/e
 output        entropy unit                     : J/mol/K
 output    efield chi2 unit                     : pm/V
  
 wavefunctions paging                           : none
 random number generator seed                   : randomised (160725154)
 data distribution                              : optimal for this architecture
 optimization strategy                          : maximize speed(+++)

 *********************** Exchange-Correlation Parameters ***********************
  
 using functional                               : revised Perdew Burke Ernzerhof
 relativistic treatment                         : Koelling-Harmon
 DFT+D: Semi-empirical dispersion correction    : off

 ************************* Pseudopotential Parameters **************************
  
 pseudopotential representation                 : reciprocal space
 <beta|phi> representation                      : reciprocal space
 spin-orbit coupling                            : off

 **************************** Basis Set Parameters *****************************
  
 plane wave basis set cut-off                   :   900.0000   eV
 size of standard grid                          :     1.7500
 size of   fine   gmax                          :    26.8966   1/A
 finite basis set correction                    : none

 **************************** Electronic Parameters ****************************
  
 number of  electrons                           :  2046.    
 net charge of system                           :  0.000    
 treating system as non-spin-polarized
 number of bands                                :       1135

 ********************* Electronic Minimization Parameters **********************
  
 Method: Treating system as metallic with density mixing treatment of electrons,
         and number of  SD  steps               :          1
         and number of  CG  steps               :          4
  
 total energy / atom convergence tol.           : 0.1000E-05   eV
 eigen-energy convergence tolerance             : 0.2247E-06   eV
 max force / atom convergence tol.              : ignored
 convergence tolerance window                   :          3   cycles
 max. number of SCF cycles                      :        200
 number of fixed-spin iterations                :         10
 smearing scheme                                : Gaussian
 smearing width                                 : 0.2000       eV
 Fermi energy convergence tolerance             : 0.2721E-13   eV
 periodic dipole correction                     : NONE
 periodically dump wavefunctions to             : castep.wvfn
 dump wavefunctions every                       :          1   SCF cycles

 ************************** Density Mixing Parameters **************************
  
 density-mixing scheme                          : Pulay
 max. length of mixing history                  :         20
 charge density mixing amplitude                : 0.8000    
 cut-off energy for mixing                      :  900.0       eV

 *********************** Population Analysis Parameters ************************
  
 Population analysis with cutoff                :  3.000       A
 Population analysis output                     : summary and pdos components

 ********************** Geometry Optimization Parameters ***********************
  
 optimization method                            : LBFGS
 max. no. of LBFGS updates                      : unbounded
 variable cell method                           : fixed basis quality
 max. number of steps                           :         30
 estimated bulk modulus                         :  500.0       GPa
 estimated <frequency>                          :  1668.       cm-1
 geom line minimiser                            : on
 with line minimiser tolerance                  :     0.4000
 total energy convergence tolerance             : 0.2000E-04   eV/atom
        max ionic |force| tolerance             : 0.5000E-01   eV/A
 max ionic |displacement| tolerance             : 0.1000E-02   A
   max |stress component| tolerance             : 0.1000       GPa
 convergence tolerance window                   :          2   steps
 backup results every                           :          5   steps
 write geom trajectory file                     : on

 *******************************************************************************
  
 
                           -------------------------------
                                      Unit Cell
                           -------------------------------
        Real Lattice(A)                      Reciprocal Lattice(1/A)
    14.4648280     0.0000000     0.0000000        0.434376773   0.000000000   0.000000000
     0.0000000    14.4648280     0.0000000        0.000000000   0.434376773   0.000000000
     0.0000000     0.0000000    14.4648280        0.000000000   0.000000000   0.434376773
 
                       Lattice parameters(A)       Cell Angles
                    a =     14.464828          alpha =   90.000000
                    b =     14.464828          beta  =   90.000000
                    c =     14.464828          gamma =   90.000000
 
                       Current cell volume =          3026.494030       A**3
                                   density =             4.190844   AMU/A**3
                                           =             6.959059     g/cm^3
 
                           -------------------------------
                                     Cell Contents
                           -------------------------------
                         Total number of ions in cell =  255
                      Total number of species in cell =    2
                        Max number of any one species =  183
 
            xxxxxxxxxxxxxxxxxxxxxxxxxxxxxxxxxxxxxxxxxxxxxxxxxxxxxxxxxxxx
            x  Element    Atom        Fractional coordinates of atoms  x
            x            Number           u          v          w      x
            x----------------------------------------------------------x
            x  Al           1         0.942988   0.187774   0.562359   x 
            x  Al           2         0.942054   0.439584   0.562215   x 
            x  Al           3         0.946780   0.689087   0.556420   x 
            x  Al           4         0.943451   0.937120   0.561320   x 
            x  Al           5         0.941590   0.185911   0.810653   x 
            x  Al           6         0.941230   0.440345   0.810630   x 
            x  Al           7         0.948537   0.690573   0.812248   x 
            x  Al           8         0.945123   0.936157   0.807758   x 
            x  Al           9         0.943810   0.187106   0.060089   x 
            x  Al          10         0.942300   0.439205   0.058723   x 
            x  Al          11         0.945773   0.688205   0.064738   x 
            x  Al          12         0.948231   0.937316   0.066944   x 
            x  Al          13         0.944801   0.188251   0.311316   x 
            x  Al          14         0.943170   0.438309   0.312236   x 
            x  Al          15         0.943473   0.687914   0.310945   x 
            x  Al          16         0.944128   0.938105   0.310193   x 
            x  Al          17         0.700586   0.064279   0.432175   x 
            x  Al          18         0.427894   0.937117   0.307984   x 
            x  Al          19         0.563367   0.070535   0.306042   x 
            x  Al          20         0.175271   0.055829   0.679715   x 
            x  Al          21         0.193681   0.937305   0.309940   x 
            x  Al          22         0.174263   0.694340   0.310801   x 
            x  Al          23         0.314692   0.059510   0.553884   x 
            x  Al          24         0.053272   0.944496   0.433734   x 
            x  Al          25         0.694249   0.813589   0.437214   x 
            x  Al          26         0.564502   0.809478   0.304105   x 
            x  Al          27         0.312162   0.571761   0.562756   x 
            x  Al          28         0.177415   0.559329   0.436100   x 
            x  Al          29         0.698660   0.309586   0.434442   x 
            x  Al          30         0.445051   0.563883   0.429734   x 
            x  Al          31         0.310586   0.317793   0.324943   x 
            x  Al          32         0.569383   0.067342   0.070654   x 
            x  Al          33         0.061134   0.936191   0.178658   x 
            x  Al          34         0.437274   0.689286   0.064061   x 
            x  Al          35         0.308632   0.686743   0.188174   x 
            x  Al          36         0.696565   0.558428   0.193188   x 
            x  Al          37         0.564634   0.555967   0.068172   x 
            x  Al          38         0.308928   0.444213   0.182109   x 
            x  Al          39         0.071405   0.565990   0.059507   x 
            x  Al          40         0.700171   0.313646   0.186911   x 
            x  Al          41         0.689451   0.565830   0.430168   x 
            x  Al          42         0.556998   0.439904   0.928638   x 
            x  Al          43         0.553812   0.308765   0.064537   x 
            x  Al          44         0.309022   0.185058   0.182706   x 
            x  Al          45         0.064343   0.314147   0.072655   x 
            x  Al          46         0.690296   0.939838   0.809717   x 
            x  Al          47         0.811623   0.937149   0.943576   x 
            x  Al          48         0.559453   0.934011   0.681766   x 
            x  Al          49         0.440205   0.062021   0.937714   x 
            x  Al          50         0.313471   0.055504   0.805254   x 
            x  Al          51         0.804250   0.689294   0.936545   x 
            x  Al          52         0.442772   0.826236   0.939119   x 
            x  Al          53         0.572707   0.689169   0.930349   x 
            x  Al          54         0.313959   0.816838   0.809860   x 
            x  Al          55         0.696507   0.442850   0.800522   x 
            x  Al          56         0.188496   0.433490   0.808218   x 
            x  Al          57         0.319609   0.573107   0.813012   x 
            x  Al          58         0.056890   0.436704   0.931480   x 
            x  Al          59         0.697353   0.305431   0.936148   x 
            x  Al          60         0.556043   0.301938   0.801787   x 
            x  Al          61         0.188757   0.195400   0.806838   x 
            x  Al          62         0.060952   0.188583   0.937257   x 
            x  Al          63         0.559578   0.066636   0.553756   x 
            x  Al          64         0.807172   0.692516   0.685827   x 
            x  Al          65         0.563860   0.691819   0.684412   x 
            x  Al          66         0.315837   0.811739   0.553223   x 
            x  Al          67         0.180772   0.814463   0.687923   x 
            x  Al          68         0.052573   0.808731   0.560595   x 
            x  Al          69         0.556602   0.307283   0.563180   x 
            x  Al          70         0.554702   0.313049   0.311259   x 
            x  Al          71         0.694776   0.440990   0.570445   x 
            x  Al          72         0.319341   0.431194   0.680635   x 
            x  Ni           1         0.940343   0.312208   0.686827   x 
            x  Ni           2         0.940150   0.569438   0.685081   x 
            x  Ni           3         0.940309   0.810258   0.684527   x 
            x  Ni           4         0.940862   0.061786   0.685609   x 
            x  Ni           5         0.818492   0.312784   0.059438   x 
            x  Ni           6         0.938291   0.567004   0.937051   x 
            x  Ni           7         0.938798   0.812984   0.938490   x 
            x  Ni           8         0.940090   0.058851   0.936788   x 
            x  Ni           9         0.940653   0.313781   0.184980   x 
            x  Ni          10         0.939985   0.562517   0.186321   x 
            x  Ni          11         0.941935   0.812208   0.188009   x 
            x  Ni          12         0.942591   0.063544   0.186733   x 
            x  Ni          13         0.939866   0.314177   0.437826   x 
            x  Ni          14         0.940726   0.563092   0.435570   x 
            x  Ni          15         0.941097   0.813746   0.434328   x 
            x  Ni          16         0.940540   0.062173   0.436185   x 
            x  Ni          17         0.061473   0.188334   0.685837   x 
            x  Ni          18         0.061841   0.311567   0.561396   x 
            x  Ni          19         0.189046   0.312950   0.681287   x 
            x  Ni          20         0.308567   0.181900   0.681920   x 
            x  Ni          21         0.313276   0.312245   0.554663   x 
            x  Ni          22         0.185449   0.184660   0.560364   x 
            x  Ni          23         0.435401   0.307941   0.681824   x 
            x  Ni          24         0.562470   0.182683   0.682143   x 
            x  Ni          25         0.434855   0.184308   0.557234   x 
            x  Ni          26         0.687790   0.311204   0.684898   x 
            x  Ni          27         0.816105   0.185066   0.686359   x 
            x  Ni          28         0.687872   0.566784   0.683466   x 
            x  Ni          29         0.691482   0.186939   0.559627   x 
            x  Ni          30         0.063632   0.437286   0.686517   x 
            x  Ni          31         0.063080   0.563850   0.565221   x 
            x  Ni          32         0.192203   0.562582   0.688335   x 
            x  Ni          33         0.435584   0.441879   0.556307   x 
            x  Ni          34         0.190875   0.439805   0.560216   x 
            x  Ni          35         0.437193   0.567222   0.683692   x 
            x  Ni          36         0.688682   0.690171   0.808222   x 
            x  Ni          37         0.819988   0.441258   0.686103   x 
            x  Ni          38         0.816321   0.566899   0.560367   x 
            x  Ni          39         0.564371   0.563794   0.558881   x 
            x  Ni          40         0.061054   0.688017   0.688376   x 
            x  Ni          41         0.313237   0.694794   0.685431   x 
            x  Ni          42         0.184665   0.691140   0.560887   x 
            x  Ni          43         0.438129   0.814141   0.682358   x 
            x  Ni          44         0.689553   0.688667   0.558439   x 
            x  Ni          45         0.563198   0.814669   0.555230   x 
            x  Ni          46         0.687098   0.816501   0.682407   x 
            x  Ni          47         0.816940   0.568840   0.810475   x 
            x  Ni          48         0.816811   0.813200   0.560104   x 
            x  Ni          49         0.056344   0.935776   0.684414   x 
            x  Ni          50         0.057371   0.062759   0.558880   x 
            x  Ni          51         0.182142   0.933838   0.557333   x 
            x  Ni          52         0.310164   0.934872   0.679204   x 
            x  Ni          53         0.181216   0.813968   0.436545   x 
            x  Ni          54         0.310857   0.936535   0.434253   x 
            x  Ni          55         0.436909   0.058950   0.681301   x 
            x  Ni          56         0.688629   0.940904   0.557163   x 
            x  Ni          57         0.439149   0.937459   0.553710   x 
            x  Ni          58         0.687303   0.059725   0.682719   x 
            x  Ni          59         0.815333   0.936086   0.685552   x 
            x  Ni          60         0.817149   0.062043   0.561427   x 
            x  Ni          61         0.565591   0.939659   0.427168   x 
            x  Ni          62         0.061366   0.312588   0.810137   x 
            x  Ni          63         0.185062   0.313275   0.935872   x 
            x  Ni          64         0.311146   0.186063   0.933595   x 
            x  Ni          65         0.314496   0.311575   0.808518   x 
            x  Ni          66         0.438687   0.310330   0.933356   x 
            x  Ni          67         0.564150   0.186867   0.936567   x 
            x  Ni          68         0.433842   0.181279   0.809153   x 
            x  Ni          69         0.818611   0.184303   0.935334   x 
            x  Ni          70         0.815175   0.311993   0.809058   x 
            x  Ni          71         0.691134   0.185458   0.808945   x 
            x  Ni          72         0.063526   0.562666   0.810086   x 
            x  Ni          73         0.188714   0.563151   0.930994   x 
            x  Ni          74         0.313624   0.439443   0.933014   x 
            x  Ni          75         0.442109   0.567755   0.938026   x 
            x  Ni          76         0.435711   0.438224   0.807838   x 
            x  Ni          77         0.561643   0.563822   0.807192   x 
            x  Ni          78         0.560845   0.436952   0.684870   x 
            x  Ni          79         0.685769   0.558888   0.934928   x 
            x  Ni          80         0.938892   0.313108   0.934328   x 
            x  Ni          81         0.814330   0.439401   0.932714   x 
            x  Ni          82         0.062205   0.688807   0.935552   x 
            x  Ni          83         0.061004   0.813417   0.812050   x 
            x  Ni          84         0.188136   0.815811   0.933402   x 
            x  Ni          85         0.316669   0.693510   0.936383   x 
            x  Ni          86         0.188699   0.690548   0.811390   x 
            x  Ni          87         0.438987   0.939590   0.809988   x 
            x  Ni          88         0.441866   0.695218   0.813146   x 
            x  Ni          89         0.687700   0.816505   0.938272   x 
            x  Ni          90         0.815704   0.814523   0.812611   x 
            x  Ni          91         0.563827   0.817782   0.810475   x 
            x  Ni          92         0.060381   0.940393   0.935870   x 
            x  Ni          93         0.061399   0.064892   0.811800   x 
            x  Ni          94         0.186926   0.064598   0.931993   x 
            x  Ni          95         0.312668   0.940107   0.936335   x 
            x  Ni          96         0.185462   0.938622   0.809123   x 
            x  Ni          97         0.567747   0.943278   0.938668   x 
            x  Ni          98         0.563191   0.062630   0.808551   x 
            x  Ni          99         0.689398   0.064449   0.938062   x 
            x  Ni         100         0.815558   0.058760   0.811402   x 
            x  Ni         101         0.063165   0.186161   0.185724   x 
            x  Ni         102         0.193312   0.314124   0.188888   x 
            x  Ni         103         0.187805   0.187202   0.310599   x 
            x  Ni         104         0.312655   0.313537   0.058962   x 
            x  Ni         105         0.186531   0.188525   0.059646   x 
            x  Ni         106         0.435650   0.185390   0.060885   x 
            x  Ni         107         0.820369   0.187915   0.185606   x 
            x  Ni         108         0.692188   0.190525   0.063197   x 
            x  Ni         109         0.063076   0.439648   0.186881   x 
            x  Ni         110         0.184387   0.566579   0.189872   x 
            x  Ni         111         0.310676   0.565520   0.058919   x 
            x  Ni         112         0.186299   0.438830   0.058308   x 
            x  Ni         113         0.435908   0.562158   0.186934   x 
            x  Ni         114         0.436321   0.438639   0.059503   x 
            x  Ni         115         0.563371   0.431877   0.186988   x 
            x  Ni         116         0.818703   0.438093   0.184735   x 
            x  Ni         117         0.813917   0.562697   0.060431   x 
            x  Ni         118         0.687805   0.432607   0.058955   x 
            x  Ni         119         0.056247   0.689552   0.182267   x 
            x  Ni         120         0.061429   0.813437   0.056424   x 
            x  Ni         121         0.185525   0.813695   0.184057   x 
            x  Ni         122         0.314095   0.814134   0.059996   x 
            x  Ni         123         0.188408   0.690882   0.059834   x 
            x  Ni         124         0.436641   0.812453   0.185968   x 
            x  Ni         125         0.564845   0.684176   0.184503   x 
            x  Ni         126         0.563780   0.813055   0.063605   x 
            x  Ni         127         0.690257   0.812261   0.186708   x 
            x  Ni         128         0.816965   0.687478   0.185009   x 
            x  Ni         129         0.815614   0.811874   0.062930   x 
            x  Ni         130         0.688275   0.684605   0.063302   x 
            x  Ni         131         0.059326   0.063683   0.059057   x 
            x  Ni         132         0.185458   0.061220   0.184008   x 
            x  Ni         133         0.310152   0.938499   0.183753   x 
            x  Ni         134         0.311857   0.063344   0.059185   x 
            x  Ni         135         0.186467   0.938089   0.059015   x 
            x  Ni         136         0.437131   0.064309   0.186616   x 
            x  Ni         137         0.563169   0.939308   0.190454   x 
            x  Ni         138         0.440606   0.941897   0.064261   x 
            x  Ni         139         0.691783   0.066024   0.189654   x 
            x  Ni         140         0.817968   0.937633   0.185002   x 
            x  Ni         141         0.816368   0.062732   0.063218   x 
            x  Ni         142         0.689792   0.939702   0.065967   x 
            x  Ni         143         0.061527   0.186193   0.433953   x 
            x  Ni         144         0.063612   0.311054   0.308925   x 
            x  Ni         145         0.183933   0.313905   0.438130   x 
            x  Ni         146         0.309013   0.186922   0.435647   x 
            x  Ni         147         0.428137   0.314615   0.188272   x 
            x  Ni         148         0.184212   0.060709   0.435452   x 
            x  Ni         149         0.438367   0.314596   0.437094   x 
            x  Ni         150         0.566058   0.189306   0.433208   x 
            x  Ni         151         0.563170   0.194603   0.187816   x 
            x  Ni         152         0.432586   0.189436   0.310159   x 
            x  Ni         153         0.692187   0.433085   0.312791   x 
            x  Ni         154         0.820705   0.187524   0.436464   x 
            x  Ni         155         0.820822   0.313181   0.311439   x 
            x  Ni         156         0.693430   0.191520   0.310435   x 
            x  Ni         157         0.058961   0.436314   0.437845   x 
            x  Ni         158         0.051463   0.563086   0.311479   x 
            x  Ni         159         0.308525   0.684677   0.432822   x 
            x  Ni         160         0.185616   0.438908   0.313944   x 
            x  Ni         161         0.439795   0.688786   0.555936   x 
            x  Ni         162         0.569119   0.434258   0.439936   x 
            x  Ni         163         0.566001   0.559628   0.308057   x 
            x  Ni         164         0.434027   0.439115   0.313864   x 
            x  Ni         165         0.815982   0.312481   0.563399   x 
            x  Ni         166         0.817866   0.562549   0.312160   x 
            x  Ni         167         0.814998   0.439547   0.439619   x 
            x  Ni         168         0.056661   0.688481   0.436231   x 
            x  Ni         169         0.059989   0.820590   0.309963   x 
            x  Ni         170         0.309306   0.809777   0.311302   x 
            x  Ni         171         0.308648   0.561313   0.315631   x 
            x  Ni         172         0.440019   0.811430   0.429249   x 
            x  Ni         173         0.566512   0.689422   0.431868   x 
            x  Ni         174         0.437174   0.687241   0.307736   x 
            x  Ni         175         0.816992   0.689009   0.435565   x 
            x  Ni         176         0.816756   0.813564   0.310005   x 
            x  Ni         177         0.692715   0.689186   0.309630   x 
            x  Ni         178         0.061185   0.060575   0.307005   x 
            x  Ni         179         0.311260   0.064310   0.310486   x 
            x  Ni         180         0.438979   0.062561   0.429790   x 
            x  Ni         181         0.692398   0.937865   0.310022   x 
            x  Ni         182         0.818148   0.937341   0.435609   x 
            x  Ni         183         0.818757   0.062866   0.309253   x 
            xxxxxxxxxxxxxxxxxxxxxxxxxxxxxxxxxxxxxxxxxxxxxxxxxxxxxxxxxxxx
 
 
                         No user defined ionic velocities
 
                           -------------------------------
                                   Details of Species
                           -------------------------------
 
                               Mass of species in AMU
                                    Al   26.9815400
                                    Ni   58.6934000
 
                          Electric Quadrupole Moment (Barn)
                                    Al    0.1466000 Isotope 27
                                    Ni    0.1620000 Isotope 61
 
                          Files used for pseudopotentials:
                                    Al 3|2.2|2.2|1.4|4|5|5|30:31:32U2U2
                                    Ni 3|2.4|2.4|1.0|8|9|10|40:41:32U2U2(qc=5.5)
 
                           -------------------------------
                              k-Points For BZ Sampling
                           -------------------------------
                       MP grid size for SCF calculation is  1  1  1
                            with an offset of   0.000  0.000  0.000
                       Number of kpoints used =             1
 
                           -------------------------------
                               Symmetry and Constraints
                           -------------------------------
 
                      Maximum deviation from symmetry =  0.00000         ANG
 
                      Number of symmetry operations   =           1
                      Number of ionic constraints     =           3
                      Point group of crystal =     1: C1, 1, 1
                      Space group of crystal =     1: P1, P 1
 
             Set iprint > 1 for details on symmetry rotations/translations
 
                         Centre of mass is constrained
             Set iprint > 1 for details of linear ionic constraints
 
                         Number of cell constraints= 6
                         Cell constraints are:  0 0 0 0 0 0
 
                         External pressure/stress (GPa)
                          0.00000   0.00000   0.00000
                                    0.00000   0.00000
                                              0.00000
  
+---------------- MEMORY AND SCRATCH DISK ESTIMATES PER PROCESS --------------+
|                                                     Memory          Disk    |
| Baseline code, static data and system overhead      622.0 MB         0.0 MB |
| BLAS internal memory storage                          0.0 MB         0.0 MB |
| Model and support data                              703.2 MB         0.0 MB |
| Electronic energy minimisation requirements         156.3 MB         0.0 MB |
| Force calculation requirements                        5.4 MB         0.0 MB |
|                                               ----------------------------- |
| Approx. total storage required per process         1481.4 MB         0.0 MB |
|                                                                             |
| Requirements will fluctuate during execution and may exceed these estimates |
+-----------------------------------------------------------------------------+
Calculating total energy with cut-off of  900.000 eV.
------------------------------------------------------------------------ <-- SCF
SCF loop      Energy           Fermi           Energy gain       Timer   <-- SCF
                               energy          per atom          (sec)   <-- SCF
------------------------------------------------------------------------ <-- SCF
Initial  -2.08598053E+005  0.00000000E+000                        15.78  <-- SCF
      1  -2.52462037E+005  7.23702695E+000   1.72015623E+002      57.11  <-- SCF
      2  -2.59292778E+005  3.77149097E+000   2.67872205E+001      96.92  <-- SCF
      3  -2.59993179E+005  3.70925113E+000   2.74667186E+000     136.45  <-- SCF
      4  -2.60039911E+005  3.88827633E+000   1.83262243E-001     171.83  <-- SCF
      5  -2.60349689E+005  6.96651012E+000   1.21481530E+000     217.20  <-- SCF
      6  -2.60136214E+005  5.76565434E+000  -8.37156442E-001     268.14  <-- SCF
      7  -2.60023090E+005  4.78149442E+000  -4.43624647E-001     318.04  <-- SCF
      8  -2.59997031E+005  4.61719154E+000  -1.02190085E-001     362.07  <-- SCF
      9  -2.60000994E+005  4.65883594E+000   1.55410332E-002     406.32  <-- SCF
     10  -2.60009104E+005  4.68344194E+000   3.18041968E-002     452.46  <-- SCF
     11  -2.59999149E+005  4.62566734E+000  -3.90384820E-002     499.26  <-- SCF
     12  -2.59994704E+005  4.58881171E+000  -1.74326766E-002     543.08  <-- SCF
     13  -2.59994540E+005  4.58488041E+000  -6.43698140E-004     588.02  <-- SCF
     14  -2.59994504E+005  4.58460486E+000  -1.41637138E-004     632.98  <-- SCF
     15  -2.59993898E+005  4.57735832E+000  -2.37641408E-003     676.90  <-- SCF
     16  -2.59993889E+005  4.57885969E+000  -3.65510693E-005     721.33  <-- SCF
     17  -2.59993914E+005  4.58174065E+000   9.89187481E-005     769.24  <-- SCF
     18  -2.59993848E+005  4.58335903E+000  -2.56594478E-004     812.96  <-- SCF
     19  -2.59993854E+005  4.58382300E+000   2.25666261E-005     857.48  <-- SCF
     20  -2.59993856E+005  4.58467438E+000   8.90146098E-006     900.79  <-- SCF
     21  -2.59993846E+005  4.58456490E+000  -4.00436135E-005     945.45  <-- SCF
     22  -2.59993847E+005  4.58450474E+000   2.39198357E-006     983.80  <-- SCF
     23  -2.59993846E+005  4.58430444E+000  -1.71294515E-006    1015.83  <-- SCF
     24  -2.59993846E+005  4.58426251E+000  -1.82978985E-006    1045.31  <-- SCF
     25  -2.59993846E+005  4.58426606E+000   4.81528394E-008    1074.16  <-- SCF
     26  -2.59993846E+005  4.58427825E+000   2.44690977E-008    1103.06  <-- SCF
------------------------------------------------------------------------ <-- SCF
 
Final energy, E             =  -259989.6559603     eV
Final free energy (E-TS)    =  -259993.8458774     eV
(energies not corrected for finite basis set)
 
NB est. 0K energy (E-0.5TS)      =  -259991.7509189     eV
 

Writing analysis data to castep.castep_bin

Writing model to castep.check
 
+---------------- MEMORY AND SCRATCH DISK ESTIMATES PER PROCESS --------------+
|                                                     Memory          Disk    |
| Model and support data                              713.2 MB         0.0 MB |
| Electronic energy minimisation requirements         156.3 MB         0.0 MB |
| Geometry minimisation requirements                  192.3 MB         0.0 MB |
|                                               ----------------------------- |
| Approx. total storage required per process         1061.8 MB         0.0 MB |
|                                                                             |
| Requirements will fluctuate during execution and may exceed these estimates |
+-----------------------------------------------------------------------------+
 
 
 ************************************** Forces **************************************
 *                                                                                  *
 *                           Cartesian components (eV/A)                            *
 * -------------------------------------------------------------------------------- *
 *                         x                    y                    z              *
 *                                                                                  *
 * Al              1     -0.44284              0.11198             -0.09865         *
 * Al              2     -0.22549             -0.08095              0.08540         *
 * Al              3     -2.23644             -1.98076              0.18170         *
 * Al              4     -2.73211              1.16877              1.05246         *
 * Al              5     -1.17603              0.02146             -0.91787         *
 * Al              6     -1.47169              0.02912             -1.42215         *
 * Al              7     -0.33968             -0.13635              0.08834         *
 * Al              8     -0.43807              0.09347              0.03176         *
 * Al              9     -2.24111             -0.65828              1.05751         *
 * Al             10     -2.49541              0.28238              1.12069         *
 * Al             11     -1.38835              0.63060             -0.28009         *
 * Al             12     -2.33166              0.00766             -1.73761         *
 * Al             13     -0.56595             -0.00563             -0.02892         *
 * Al             14     -0.60279             -0.40223             -0.04793         *
 * Al             15     -0.83144              0.26010             -0.06581         *
 * Al             16     -2.77401              0.20667             -0.75679         *
 * Al             17      0.20294              0.02669              0.11793         *
 * Al             18     -0.06374              0.10897              0.06243         *
 * Al             19      0.01971             -0.07028             -0.11341         *
 * Al             20     -0.14355             -0.01275             -0.15717         *
 * Al             21      0.33238              0.11171              0.05840         *
 * Al             22      0.17720             -0.04842              0.06741         *
 * Al             23      0.02031              0.05161             -0.12676         *
 * Al             24      2.77795             -0.04552              0.30356         *
 * Al             25      0.17119              0.04326              0.20700         *
 * Al             26      0.01949             -0.22024             -0.09969         *
 * Al             27      0.00887              0.03119              0.12849         *
 * Al             28      0.05037             -0.08691             -0.06746         *
 * Al             29      0.29424             -0.25004             -0.05456         *
 * Al             30     -0.09324              0.01793             -0.01858         *
 * Al             31     -0.12604              0.16264              0.19233         *
 * Al             32      0.14437             -0.16578             -0.05399         *
 * Al             33      2.46262              0.10239              1.13163         *
 * Al             34     -0.09959             -0.06150              0.01240         *
 * Al             35     -0.02391              0.03860              0.09612         *
 * Al             36      0.14063              0.16800             -0.04207         *
 * Al             37      0.02044             -0.02723              0.01255         *
 * Al             38      0.03032              0.02561              0.08431         *
 * Al             39      0.95763              0.10420              0.55457         *
 * Al             40      0.06956             -0.09742             -0.10504         *
 * Al             41      0.10693              0.15845              0.06204         *
 * Al             42     -0.37204              0.29812              0.11624         *
 * Al             43     -0.23155             -0.09956              0.06544         *
 * Al             44      0.14374             -0.09376             -0.00871         *
 * Al             45      1.81067              0.04493              0.19684         *
 * Al             46     -0.25594             -0.06800             -0.02509         *
 * Al             47     -0.07580              0.13651              0.15101         *
 * Al             48     -0.29954              0.05496             -0.02770         *
 * Al             49     -0.03543              0.03214             -0.05377         *
 * Al             50      0.04164             -0.07593              0.11577         *
 * Al             51     -0.15650             -0.01425              0.03853         *
 * Al             52     -0.01683              0.13553             -0.07717         *
 * Al             53      0.16063             -0.07610             -0.18918         *
 * Al             54      0.14628             -0.02071              0.18307         *
 * Al             55      0.05862              0.36779             -0.23716         *
 * Al             56     -0.04867             -0.14592              0.05995         *
 * Al             57      0.13513              0.17967              0.11961         *
 * Al             58      2.12001              0.00359              0.08757         *
 * Al             59      0.50640             -0.25970              0.03476         *
 * Al             60     -0.14062             -0.20741             -0.24202         *
 * Al             61      0.05286              0.21963              0.03449         *
 * Al             62      1.62885             -0.38244             -0.37255         *
 * Al             63     -0.01869              0.06502              0.09312         *
 * Al             64     -0.08850             -0.18419             -0.17006         *
 * Al             65     -0.13961             -0.00880             -0.20090         *
 * Al             66      0.05323             -0.01023             -0.22535         *
 * Al             67      0.00418             -0.05258              0.02245         *
 * Al             68      2.94927              0.51639             -0.17253         *
 * Al             69     -0.11104              0.00583              0.19638         *
 * Al             70     -0.11124              0.15328              0.09570         *
 * Al             71     -0.07002              0.11107              0.17920         *
 * Al             72      0.09116             -0.27086             -0.32035         *
 * Ni              1     -0.20064              0.12387             -0.01953         *
 * Ni              2     -0.27650             -0.13486              0.22299         *
 * Ni              3     -0.67122             -0.21145              0.20628         *
 * Ni              4     -0.35198              0.13310              0.15918         *
 * Ni              5      0.13368              0.05211             -0.05171         *
 * Ni              6      0.20171             -0.31586              0.18832         *
 * Ni              7     -0.23184              0.03115             -0.15864         *
 * Ni              8     -0.46559              0.19271             -0.09540         *
 * Ni              9     -0.19226             -0.06384             -0.08349         *
 * Ni             10     -0.36153             -0.06142             -0.73668         *
 * Ni             11     -0.52900              0.46763             -0.36830         *
 * Ni             12     -0.41026             -0.34075             -0.25568         *
 * Ni             13     -0.13577             -0.18427             -0.05816         *
 * Ni             14     -0.45070             -0.09058              0.49043         *
 * Ni             15     -0.48218              0.57956              0.31920         *
 * Ni             16     -0.67349              0.05919             -0.32638         *
 * Ni             17      0.46206              0.05467             -0.05508         *
 * Ni             18      0.38812              0.16859              0.09729         *
 * Ni             19     -0.11938             -0.01965             -0.10252         *
 * Ni             20     -0.01375              0.00995              0.22478         *
 * Ni             21     -0.21982             -0.04952              0.01901         *
 * Ni             22      0.04752              0.16210             -0.10435         *
 * Ni             23     -0.07775             -0.11674              0.09092         *
 * Ni             24      0.07832             -0.11357              0.11639         *
 * Ni             25     -0.04108              0.26626             -0.06204         *
 * Ni             26      0.23542             -0.12799              0.11592         *
 * Ni             27     -0.33333              0.17047             -0.08458         *
 * Ni             28      0.05021             -0.00559              0.21370         *
 * Ni             29      0.03007             -0.07627              0.07343         *
 * Ni             30      0.22145              0.13369             -0.21353         *
 * Ni             31      0.24960             -0.23428             -0.01289         *
 * Ni             32      0.01534             -0.07469              0.15327         *
 * Ni             33     -0.00239              0.14983             -0.10989         *
 * Ni             34      0.01192              0.10021             -0.05792         *
 * Ni             35      0.03706             -0.38971              0.07331         *
 * Ni             36     -0.21236              0.04474              0.07711         *
 * Ni             37     -0.03145             -0.07448             -0.12217         *
 * Ni             38     -0.08780             -0.00173              0.02366         *
 * Ni             39      0.10702             -0.13307              0.10520         *
 * Ni             40      0.80338             -0.08117             -0.50329         *
 * Ni             41     -0.09578              0.03098             -0.03486         *
 * Ni             42      0.11459              0.00075              0.19497         *
 * Ni             43      0.00215             -0.08819              0.06271         *
 * Ni             44     -0.20105              0.05418             -0.07902         *
 * Ni             45      0.05950             -0.16310             -0.08333         *
 * Ni             46      0.23696              0.19010              0.04576         *
 * Ni             47     -0.02177              0.13235             -0.06214         *
 * Ni             48      0.01639              0.00591              0.13613         *
 * Ni             49      0.75945             -0.14856             -0.15920         *
 * Ni             50      0.50512              0.03981             -0.11076         *
 * Ni             51      0.14525             -0.09047              0.12704         *
 * Ni             52      0.15973              0.10086              0.15827         *
 * Ni             53     -0.01243             -0.00602             -0.28309         *
 * Ni             54      0.05015             -0.06049              0.15759         *
 * Ni             55      0.20694              0.21795             -0.02217         *
 * Ni             56      0.02809              0.06297              0.15626         *
 * Ni             57      0.22919             -0.10438             -0.04794         *
 * Ni             58      0.15829              0.05828              0.08880         *
 * Ni             59     -0.03017              0.05309             -0.25651         *
 * Ni             60     -0.06514             -0.05582              0.18441         *
 * Ni             61     -0.17716             -0.01379              0.07507         *
 * Ni             62      0.15731              0.03145             -0.18926         *
 * Ni             63      0.16274              0.06661              0.22831         *
 * Ni             64      0.11058             -0.01486              0.07586         *
 * Ni             65      0.06988              0.08747              0.13486         *
 * Ni             66     -0.08387              0.15238              0.00266         *
 * Ni             67      0.14631              0.10045             -0.15821         *
 * Ni             68     -0.01308              0.05174             -0.10574         *
 * Ni             69     -0.16685             -0.13141              0.02619         *
 * Ni             70     -0.03729             -0.07701             -0.15644         *
 * Ni             71     -0.19022             -0.13032              0.03632         *
 * Ni             72      0.25656             -0.25208              0.13324         *
 * Ni             73     -0.01077             -0.04869              0.12674         *
 * Ni             74      0.01670             -0.08395              0.01358         *
 * Ni             75      0.14070             -0.00244              0.24694         *
 * Ni             76      0.01800              0.04515              0.03266         *
 * Ni             77      0.04706             -0.07738              0.02142         *
 * Ni             78     -0.14974              0.13477             -0.08681         *
 * Ni             79      0.04921             -0.12485             -0.00370         *
 * Ni             80      0.19322             -0.06853              0.51625         *
 * Ni             81     -0.09252              0.07083              0.22377         *
 * Ni             82      0.70706              0.00901              0.06486         *
 * Ni             83      0.37442              0.18117              0.34376         *
 * Ni             84     -0.22582             -0.20399              0.27908         *
 * Ni             85     -0.30314              0.17283              0.09340         *
 * Ni             86     -0.04463             -0.02608             -0.04320         *
 * Ni             87     -0.00796             -0.05442             -0.05534         *
 * Ni             88     -0.08824              0.00392             -0.06318         *
 * Ni             89      0.11364              0.13203              0.04499         *
 * Ni             90     -0.21124             -0.01369             -0.03653         *
 * Ni             91      0.28870             -0.05992              0.01803         *
 * Ni             92      0.76329             -0.24223             -0.17977         *
 * Ni             93      0.36877              0.15724              0.11464         *
 * Ni             94     -0.00953              0.11313              0.21681         *
 * Ni             95     -0.21239             -0.04263              0.11328         *
 * Ni             96      0.03500              0.01921              0.10848         *
 * Ni             97     -0.12129              0.03332              0.18677         *
 * Ni             98      0.25478              0.06229             -0.08044         *
 * Ni             99      0.32107              0.14531             -0.21098         *
 * Ni            100     -0.06815             -0.03358              0.06092         *
 * Ni            101      0.42177              0.08725             -0.07006         *
 * Ni            102     -0.10413             -0.00783              0.10096         *
 * Ni            103     -0.08204              0.10063              0.03546         *
 * Ni            104     -0.13574             -0.04309             -0.26927         *
 * Ni            105      0.05596             -0.04269             -0.14633         *
 * Ni            106      0.04593              0.12629             -0.14029         *
 * Ni            107     -0.34635             -0.06050              0.13891         *
 * Ni            108     -0.00540              0.01870              0.07602         *
 * Ni            109      0.29542              0.09354             -0.19482         *
 * Ni            110     -0.06968             -0.09878              0.07127         *
 * Ni            111     -0.00706              0.06321             -0.11286         *
 * Ni            112     -0.02200             -0.03495             -0.23143         *
 * Ni            113      0.08308              0.09640              0.05016         *
 * Ni            114      0.15132             -0.07182             -0.15701         *
 * Ni            115     -0.05175              0.05933              0.10392         *
 * Ni            116     -0.08653             -0.05655              0.16051         *
 * Ni            117     -0.02785              0.01262             -0.18046         *
 * Ni            118     -0.11294              0.02880             -0.23077         *
 * Ni            119      1.06114              0.01156              0.26924         *
 * Ni            120      0.64329              0.05719              0.24673         *
 * Ni            121     -0.03277             -0.03159             -0.06364         *
 * Ni            122     -0.14332              0.12672              0.21065         *
 * Ni            123      0.15549              0.06558             -0.25680         *
 * Ni            124     -0.09063              0.18373             -0.09031         *
 * Ni            125      0.01963             -0.07957              0.05325         *
 * Ni            126     -0.07550             -0.11338             -0.29079         *
 * Ni            127      0.27125              0.04486             -0.29834         *
 * Ni            128     -0.21656              0.08638              0.20313         *
 * Ni            129     -0.15230             -0.05602              0.08602         *
 * Ni            130     -0.23281              0.13690              0.22116         *
 * Ni            131      0.92582              0.01220              0.01633         *
 * Ni            132     -0.08149             -0.02286             -0.02949         *
 * Ni            133      0.12171              0.01368             -0.32622         *
 * Ni            134     -0.32420             -0.28841              0.08328         *
 * Ni            135      0.17614              0.12410             -0.22832         *
 * Ni            136     -0.12732             -0.04467              0.00668         *
 * Ni            137      0.04274             -0.14834              0.06092         *
 * Ni            138     -0.10344              0.03297              0.19087         *
 * Ni            139      0.29673             -0.12503             -0.16061         *
 * Ni            140     -0.30764              0.05539              0.17404         *
 * Ni            141     -0.09177              0.00550             -0.03510         *
 * Ni            142     -0.13021             -0.13869              0.10149         *
 * Ni            143      0.46584              0.08515              0.25000         *
 * Ni            144      0.36933              0.22673              0.17648         *
 * Ni            145     -0.14759             -0.10116             -0.02326         *
 * Ni            146      0.22900             -0.02267             -0.00668         *
 * Ni            147     -0.09774             -0.02272              0.01513         *
 * Ni            148     -0.02188              0.15199             -0.20690         *
 * Ni            149     -0.12599             -0.11982              0.09676         *
 * Ni            150     -0.09961             -0.07452              0.02553         *
 * Ni            151     -0.04845              0.01818              0.03590         *
 * Ni            152      0.10721              0.06825              0.21639         *
 * Ni            153     -0.01841             -0.10087             -0.08871         *
 * Ni            154     -0.17799              0.12831             -0.05308         *
 * Ni            155      0.00381              0.05587              0.10997         *
 * Ni            156      0.04897             -0.08305             -0.08798         *
 * Ni            157      0.58515             -0.05518             -0.00621         *
 * Ni            158      1.54670              0.03131             -0.27989         *
 * Ni            159      0.02782             -0.09771             -0.02616         *
 * Ni            160     -0.09047             -0.17285             -0.17870         *
 * Ni            161      0.08981              0.06496              0.00822         *
 * Ni            162      0.15283             -0.25982             -0.03907         *
 * Ni            163     -0.15120              0.16410             -0.03824         *
 * Ni            164      0.22947              0.03210             -0.23678         *
 * Ni            165     -0.00025              0.00422              0.08368         *
 * Ni            166      0.09443             -0.01197              0.11897         *
 * Ni            167     -0.23531             -0.06678             -0.19917         *
 * Ni            168      0.96969             -0.07241             -0.07773         *
 * Ni            169      0.47991              0.04793              0.03095         *
 * Ni            170     -0.00819             -0.20734             -0.02848         *
 * Ni            171     -0.08202              0.08467             -0.17226         *
 * Ni            172     -0.02396              0.03171              0.08042         *
 * Ni            173     -0.12180              0.11335              0.09689         *
 * Ni            174      0.08303             -0.27700              0.13555         *
 * Ni            175     -0.01298             -0.12003             -0.13137         *
 * Ni            176     -0.05971             -0.09574             -0.24212         *
 * Ni            177      0.07640              0.13621             -0.07510         *
 * Ni            178      0.73931             -0.25859              0.28821         *
 * Ni            179     -0.26533              0.11314              0.14703         *
 * Ni            180     -0.25565              0.12623             -0.09131         *
 * Ni            181      0.09879             -0.00278             -0.15468         *
 * Ni            182     -0.03509              0.03253             -0.14434         *
 * Ni            183      0.05408              0.06317             -0.18841         *
 *                                                                                  *
 ************************************************************************************
 LBFGS: finished iteration     0 with enthalpy= -2.59993846E+005 eV
  
 +-----------+-----------------+-----------------+------------+-----+ <-- LBFGS
 | Parameter |      value      |    tolerance    |    units   | OK? | <-- LBFGS
 +-----------+-----------------+-----------------+------------+-----+ <-- LBFGS
 |  dE/ion   |   0.000000E+000 |   2.000000E-005 |         eV | No  | <-- LBFGS
 |  |F|max   |   3.152478E+000 |   5.000000E-002 |       eV/A | No  | <-- LBFGS
 |  |dR|max  |   0.000000E+000 |   1.000000E-003 |          A | No  | <-- LBFGS
 +-----------+-----------------+-----------------+------------+-----+ <-- LBFGS
  

================================================================================
 Starting LBFGS iteration          1 ...
================================================================================
  
 +------------+-------------+-------------+-----------------+ <-- min LBFGS
 |    Step    |   lambda    |   F.delta'  |    enthalpy     | <-- min LBFGS
 +------------+-------------+-------------+-----------------+ <-- min LBFGS
 |  previous  |    0.000000 |    5.936588 |  -259993.845877 | <-- min LBFGS
 +------------+-------------+-------------+-----------------+ <-- min LBFGS
  

--------------------------------------------------------------------------------
 LBFGS: starting iteration         1 with trial guess (lambda=  1.000000)
--------------------------------------------------------------------------------
 
                           -------------------------------
                                     Cell Contents
                           -------------------------------
 
            xxxxxxxxxxxxxxxxxxxxxxxxxxxxxxxxxxxxxxxxxxxxxxxxxxxxxxxxxxxxxxxxx
            x  Element         Atom        Fractional coordinates of atoms  x
            x                 Number           u          v          w      x
            x---------------------------------------------------------------x
            x  Al                1         0.942928   0.187789   0.562346   x
            x  Al                2         0.942023   0.439573   0.562227   x
            x  Al                3         0.946476   0.688818   0.556445   x
            x  Al                4         0.943080   0.937278   0.561463   x
            x  Al                5         0.941431   0.185914   0.810529   x
            x  Al                6         0.941030   0.440349   0.810437   x
            x  Al                7         0.948491   0.690555   0.812260   x
            x  Al                8         0.945064   0.936170   0.807763   x
            x  Al                9         0.943505   0.187016   0.060232   x
            x  Al               10         0.941961   0.439243   0.058875   x
            x  Al               11         0.945584   0.688291   0.064700   x
            x  Al               12         0.947915   0.937317   0.066708   x
            x  Al               13         0.944725   0.188250   0.311312   x
            x  Al               14         0.943088   0.438255   0.312230   x
            x  Al               15         0.943360   0.687950   0.310936   x
            x  Al               16         0.943751   0.938133   0.310091   x
            x  Al               17         0.700614   0.064282   0.432191   x
            x  Al               18         0.427886   0.937132   0.307993   x
            x  Al               19         0.563370   0.070526   0.306027   x
            x  Al               20         0.175251   0.055827   0.679693   x
            x  Al               21         0.193726   0.937320   0.309948   x
            x  Al               22         0.174288   0.694333   0.310811   x
            x  Al               23         0.314695   0.059517   0.553866   x
            x  Al               24         0.053649   0.944489   0.433776   x
            x  Al               25         0.694272   0.813595   0.437242   x
            x  Al               26         0.564505   0.809448   0.304092   x
            x  Al               27         0.312164   0.571765   0.562774   x
            x  Al               28         0.177422   0.559317   0.436090   x
            x  Al               29         0.698700   0.309552   0.434434   x
            x  Al               30         0.445039   0.563885   0.429731   x
            x  Al               31         0.310569   0.317815   0.324969   x
            x  Al               32         0.569402   0.067320   0.070647   x
            x  Al               33         0.061468   0.936205   0.178812   x
            x  Al               34         0.437261   0.689278   0.064063   x
            x  Al               35         0.308628   0.686748   0.188187   x
            x  Al               36         0.696584   0.558451   0.193182   x
            x  Al               37         0.564637   0.555964   0.068174   x
            x  Al               38         0.308932   0.444216   0.182120   x
            x  Al               39         0.071535   0.566004   0.059582   x
            x  Al               40         0.700181   0.313633   0.186896   x
            x  Al               41         0.689466   0.565851   0.430177   x
            x  Al               42         0.556947   0.439944   0.928654   x
            x  Al               43         0.553780   0.308752   0.064546   x
            x  Al               44         0.309041   0.185045   0.182705   x
            x  Al               45         0.064589   0.314153   0.072682   x
            x  Al               46         0.690261   0.939828   0.809713   x
            x  Al               47         0.811612   0.937167   0.943597   x
            x  Al               48         0.559412   0.934019   0.681763   x
            x  Al               49         0.440200   0.062025   0.937707   x
            x  Al               50         0.313477   0.055494   0.805270   x
            x  Al               51         0.804229   0.689292   0.936550   x
            x  Al               52         0.442770   0.826255   0.939109   x
            x  Al               53         0.572729   0.689159   0.930323   x
            x  Al               54         0.313979   0.816836   0.809885   x
            x  Al               55         0.696515   0.442899   0.800490   x
            x  Al               56         0.188489   0.433470   0.808226   x
            x  Al               57         0.319627   0.573132   0.813029   x
            x  Al               58         0.057178   0.436705   0.931492   x
            x  Al               59         0.697422   0.305395   0.936153   x
            x  Al               60         0.556024   0.301910   0.801754   x
            x  Al               61         0.188764   0.195430   0.806843   x
            x  Al               62         0.061173   0.188531   0.937207   x
            x  Al               63         0.559576   0.066644   0.553769   x
            x  Al               64         0.807160   0.692491   0.685804   x
            x  Al               65         0.563841   0.691817   0.684385   x
            x  Al               66         0.315844   0.811738   0.553192   x
            x  Al               67         0.180773   0.814456   0.687926   x
            x  Al               68         0.052974   0.808801   0.560571   x
            x  Al               69         0.556587   0.307284   0.563206   x
            x  Al               70         0.554686   0.313070   0.311272   x
            x  Al               71         0.694766   0.441005   0.570469   x
            x  Al               72         0.319353   0.431157   0.680592   x
            x  Ni                1         0.940316   0.312225   0.686825   x
            x  Ni                2         0.940112   0.569420   0.685112   x
            x  Ni                3         0.940218   0.810229   0.684555   x
            x  Ni                4         0.940814   0.061804   0.685631   x
            x  Ni                5         0.818510   0.312791   0.059431   x
            x  Ni                6         0.938318   0.566961   0.937076   x
            x  Ni                7         0.938766   0.812988   0.938468   x
            x  Ni                8         0.940026   0.058877   0.936776   x
            x  Ni                9         0.940627   0.313772   0.184968   x
            x  Ni               10         0.939936   0.562509   0.186221   x
            x  Ni               11         0.941863   0.812272   0.187958   x
            x  Ni               12         0.942536   0.063497   0.186698   x
            x  Ni               13         0.939848   0.314152   0.437818   x
            x  Ni               14         0.940664   0.563079   0.435636   x
            x  Ni               15         0.941032   0.813825   0.434372   x
            x  Ni               16         0.940448   0.062181   0.436141   x
            x  Ni               17         0.061536   0.188342   0.685830   x
            x  Ni               18         0.061894   0.311590   0.561409   x
            x  Ni               19         0.189030   0.312948   0.681273   x
            x  Ni               20         0.308565   0.181902   0.681951   x
            x  Ni               21         0.313246   0.312238   0.554666   x
            x  Ni               22         0.185456   0.184682   0.560350   x
            x  Ni               23         0.435390   0.307926   0.681836   x
            x  Ni               24         0.562480   0.182668   0.682159   x
            x  Ni               25         0.434849   0.184344   0.557226   x
            x  Ni               26         0.687822   0.311186   0.684914   x
            x  Ni               27         0.816059   0.185089   0.686347   x
            x  Ni               28         0.687878   0.566783   0.683495   x
            x  Ni               29         0.691486   0.186929   0.559637   x
            x  Ni               30         0.063662   0.437305   0.686488   x
            x  Ni               31         0.063114   0.563818   0.565219   x
            x  Ni               32         0.192205   0.562572   0.688356   x
            x  Ni               33         0.435583   0.441899   0.556292   x
            x  Ni               34         0.190876   0.439818   0.560208   x
            x  Ni               35         0.437198   0.567169   0.683702   x
            x  Ni               36         0.688653   0.690177   0.808232   x
            x  Ni               37         0.819984   0.441247   0.686087   x
            x  Ni               38         0.816309   0.566898   0.560370   x
            x  Ni               39         0.564385   0.563776   0.558896   x
            x  Ni               40         0.061163   0.688006   0.688308   x
            x  Ni               41         0.313224   0.694799   0.685427   x
            x  Ni               42         0.184681   0.691140   0.560914   x
            x  Ni               43         0.438129   0.814129   0.682366   x
            x  Ni               44         0.689526   0.688675   0.558428   x
            x  Ni               45         0.563206   0.814647   0.555219   x
            x  Ni               46         0.687130   0.816527   0.682413   x
            x  Ni               47         0.816937   0.568858   0.810467   x
            x  Ni               48         0.816813   0.813201   0.560123   x
            x  Ni               49         0.056448   0.935756   0.684393   x
            x  Ni               50         0.057439   0.062765   0.558865   x
            x  Ni               51         0.182161   0.933826   0.557350   x
            x  Ni               52         0.310185   0.934886   0.679225   x
            x  Ni               53         0.181214   0.813968   0.436507   x
            x  Ni               54         0.310864   0.936527   0.434275   x
            x  Ni               55         0.436937   0.058980   0.681298   x
            x  Ni               56         0.688633   0.940913   0.557185   x
            x  Ni               57         0.439180   0.937445   0.553704   x
            x  Ni               58         0.687325   0.059733   0.682731   x
            x  Ni               59         0.815329   0.936094   0.685517   x
            x  Ni               60         0.817140   0.062036   0.561452   x
            x  Ni               61         0.565567   0.939657   0.427178   x
            x  Ni               62         0.061387   0.312593   0.810112   x
            x  Ni               63         0.185085   0.313284   0.935903   x
            x  Ni               64         0.311161   0.186061   0.933606   x
            x  Ni               65         0.314505   0.311587   0.808537   x
            x  Ni               66         0.438676   0.310351   0.933356   x
            x  Ni               67         0.564170   0.186880   0.936546   x
            x  Ni               68         0.433841   0.181286   0.809139   x
            x  Ni               69         0.818588   0.184285   0.935338   x
            x  Ni               70         0.815170   0.311983   0.809037   x
            x  Ni               71         0.691108   0.185440   0.808949   x
            x  Ni               72         0.063561   0.562632   0.810104   x
            x  Ni               73         0.188713   0.563144   0.931011   x
            x  Ni               74         0.313626   0.439432   0.933016   x
            x  Ni               75         0.442128   0.567755   0.938059   x
            x  Ni               76         0.435714   0.438230   0.807843   x
            x  Ni               77         0.561649   0.563811   0.807195   x
            x  Ni               78         0.560825   0.436970   0.684858   x
            x  Ni               79         0.685776   0.558871   0.934927   x
            x  Ni               80         0.938918   0.313099   0.934398   x
            x  Ni               81         0.814317   0.439410   0.932744   x
            x  Ni               82         0.062301   0.688808   0.935561   x
            x  Ni               83         0.061055   0.813441   0.812097   x
            x  Ni               84         0.188106   0.815784   0.933440   x
            x  Ni               85         0.316628   0.693533   0.936396   x
            x  Ni               86         0.188693   0.690545   0.811384   x
            x  Ni               87         0.438986   0.939582   0.809980   x
            x  Ni               88         0.441854   0.695218   0.813137   x
            x  Ni               89         0.687715   0.816523   0.938278   x
            x  Ni               90         0.815676   0.814521   0.812606   x
            x  Ni               91         0.563866   0.817774   0.810478   x
            x  Ni               92         0.060484   0.940360   0.935846   x
            x  Ni               93         0.061449   0.064914   0.811816   x
            x  Ni               94         0.186924   0.064614   0.932022   x
            x  Ni               95         0.312639   0.940102   0.936351   x
            x  Ni               96         0.185467   0.938624   0.809137   x
[...]
            Ni 66  -- Ni 68                  0.05        2.59830
            Ni 21  -- Ni 33                  0.11        2.59841
            Ni 69  -- Ni 71                  0.09        2.59849
            Ni 147 -- Ni 151                 0.08        2.59889
            Ni 106 -- Ni 151                 0.03        2.59911
             Al 70 -- Ni 153                 0.15        2.59949
            Ni 39  -- Ni 173                 0.05        2.59949
             Al 41 -- Ni 39                  0.16        2.59962
             Al 67 -- Ni 52                  0.15        2.59972
            Ni 60  -- Ni 182                -0.02        2.60032
            Ni 5   -- Ni 81                  0.01        2.60036
            Ni 14  -- Ni 31                  0.01        2.60054
            Ni 114 -- Ni 147                 0.01        2.60058
             Al 55 -- Ni 78                  0.19        2.60068
             Al 24 -- Ni 15                  0.16        2.60083
             Al 31 -- Ni 102                 0.16        2.60089
            Ni 56  -- Ni 61                  0.04        2.60098
            Ni 9   -- Ni 116                 0.07        2.60129
             Al 12 -- Ni 140                 0.17        2.60149
             Al 3  -- Ni 3                   0.17        2.60167
            Ni 24  -- Ni 26                  0.01        2.60171
             Al 41 -- Ni 153                 0.19        2.60199
             Al 3  -- Ni 48                  0.16        2.60213
            Ni 87  -- Ni 95                 -0.06        2.60232
             Al 3  -- Ni 15                  0.18        2.60268
            Ni 43  -- Ni 57                 -0.01        2.60299
            Ni 35  -- Ni 41                  0.08        2.60372
             Al 38 -- Ni 160                 0.16        2.60375
             Al 12 -- Al 33                  0.27        2.60428
             Al 13 -- Ni 178                 0.18        2.60468
            Ni 52  -- Ni 57                  0.03        2.60468
             Al 54 -- Ni 86                  0.14        2.60478
             Al 32 -- Ni 99                  0.17        2.60504
            Ni 2   -- Ni 38                  0.04        2.60530
            Ni 43  -- Ni 87                  0.00        2.60542
            Ni 1   -- Ni 27                  0.02        2.60542
             Al 23 -- Ni 22                  0.15        2.60562
             Al 23 -- Ni 51                  0.18        2.60565
             Al 12 -- Ni 129                 0.14        2.60576
            Ni 154 -- Ni 156                 0.05        2.60579
            Ni 24  -- Ni 68                  0.03        2.60582
            Ni 16  -- Ni 178                -0.02        2.60589
             Al 40 -- Ni 115                 0.15        2.60604
             Al 13 -- Ni 13                  0.18        2.60638
             Al 44 -- Ni 104                 0.14        2.60655
            Ni 62  -- Ni 63                 -0.07        2.60662
            Ni 119 -- Ni 123                 0.08        2.60663
             Al 36 -- Ni 130                 0.16        2.60721
             Al 8  -- Ni 90                  0.18        2.60736
            Ni 15  -- Ni 175                 0.07        2.60741
            Ni 73  -- Ni 123                 0.06        2.60753
            Ni 3   -- Ni 83                  0.01        2.60755
            Ni 75  -- Ni 85                  0.05        2.60767
            Ni 8   -- Ni 141                -0.01        2.60769
             Al 11 -- Ni 82                  0.18        2.60794
            Ni 11  -- Ni 128                 0.09        2.60816
             Al 38 -- Ni 164                 0.18        2.60817
            Ni 27  -- Ni 100                 0.09        2.60821
            Ni 29  -- Ni 154                 0.03        2.60827
            Ni 16  -- Ni 60                  0.04        2.60829
             Al 21 -- Ni 178                 0.17        2.60876
            Ni 47  -- Ni 79                  0.03        2.60923
            Ni 103 -- Ni 178                 0.13        2.60947
            Ni 7   -- Ni 92                  0.06        2.60974
             Al 1  -- Ni 16                  0.17        2.60976
            Ni 110 -- Ni 119                 0.02        2.60999
             Al 68 -- Ni 3                   0.15        2.61077
            Ni 166 -- Ni 177                 0.08        2.61081
             Al 9  -- Ni 101                 0.17        2.61096
            Ni 63  -- Ni 65                  0.02        2.61099
            Ni 54  -- Ni 170                 0.06        2.61134
             Al 61 -- Al 62                  0.25        2.61161
            Ni 5   -- Ni 116                -0.01        2.61179
            Ni 26  -- Ni 78                 -0.11        2.61202
             Al 15 -- Ni 169                 0.20        2.61220
            Ni 121 -- Ni 169                -0.02        2.61264
            Ni 15  -- Ni 168                 0.02        2.61265
            Ni 4   -- Ni 59                  0.01        2.61319
             Al 63 -- Ni 61                  0.18        2.61320
            Ni 163 -- Ni 177                 0.00        2.61322
            Ni 52  -- Ni 96                 -0.07        2.61326
             Al 41 -- Ni 162                 0.18        2.61336
             Al 15 -- Ni 14                  0.18        2.61362
            Ni 40  -- Ni 72                  0.12        2.61372
            Ni 137 -- Ni 139                 0.01        2.61425
            Ni 182 -- Ni 183                -0.04        2.61478
            Ni 18  -- Ni 34                  0.12        2.61481
             Al 15 -- Ni 10                  0.18        2.61482
             Al 53 -- Ni 126                 0.16        2.61510
            Ni 87  -- Ni 97                 -0.00        2.61549
            Ni 115 -- Ni 147                 0.10        2.61562
            Ni 126 -- Ni 137                 0.13        2.61572
             Al 9  -- Ni 80                  0.19        2.61580
             Al 47 -- Ni 7                   0.16        2.61585
             Al 26 -- Ni 181                 0.15        2.61606
             Al 22 -- Al 35                  0.26        2.61641
             Al 2  -- Ni 2                   0.19        2.61656
            Ni 12  -- Ni 107                 0.08        2.61664
            Ni 124 -- Ni 125                 0.04        2.61680
            Ni 69  -- Ni 80                  0.08        2.61719
             Al 26 -- Ni 61                  0.17        2.61771
             Al 37 -- Al 42                  0.23        2.61794
             Al 35 -- Ni 122                 0.14        2.61801
             Al 3  -- Al 68                  0.25        2.61830
             Al 64 -- Ni 2                   0.16        2.61831
             Al 10 -- Ni 109                 0.16        2.61835
             Al 60 -- Ni 76                  0.18        2.61856
             Al 31 -- Ni 152                 0.14        2.61888
            Ni 24  -- Ni 25                 -0.01        2.61889
            Ni 72  -- Ni 82                  0.03        2.61904
            Ni 7   -- Ni 82                  0.06        2.61931
            Ni 113 -- Ni 115                 0.11        2.61982
            Ni 143 -- Ni 178                 0.09        2.62012
             Al 43 -- Ni 108                 0.14        2.62021
             Al 21 -- Ni 169                 0.16        2.62040
            Ni 69  -- Ni 70                  0.04        2.62078
            Ni 20  -- Ni 65                  0.05        2.62083
            Ni 54  -- Ni 179                 0.04        2.62113
             Al 40 -- Ni 151                 0.15        2.62175
            Ni 31  -- Ni 32                  0.10        2.62211
            Ni 6   -- Ni 47                  0.04        2.62215
            Ni 2   -- Ni 30                  0.05        2.62223
             Al 22 -- Ni 159                 0.15        2.62236
            Ni 67  -- Ni 68                  0.05        2.62275
            Ni 23  -- Ni 78                  0.02        2.62283
            Ni 157 -- Ni 158                 0.01        2.62304
             Al 69 -- Ni 33                  0.15        2.62327
             Al 38 -- Ni 104                 0.16        2.62329
            Ni 51  -- Ni 148                 0.06        2.62334
            Ni 49  -- Ni 96                  0.05        2.62389
            Ni 110 -- Ni 111                -0.00        2.62394
             Al 18 -- Ni 61                  0.15        2.62444
             Al 25 -- Ni 61                  0.16        2.62491
             Al 43 -- Ni 118                 0.13        2.62513
             Al 62 -- Ni 62                  0.14        2.62543
            Ni 69  -- Ni 108                 0.07        2.62549
             Al 66 -- Ni 52                  0.17        2.62557
             Al 48 -- Ni 98                  0.15        2.62627
             Al 61 -- Ni 93                  0.18        2.62710
            Ni 110 -- Ni 123                -0.02        2.62773
             Al 11 -- Ni 6                   0.20        2.62793
            Ni 53  -- Ni 159                 0.03        2.62824
             Al 14 -- Ni 167                 0.17        2.62826
            Ni 95  -- Ni 138                -0.00        2.62842
            Ni 28  -- Ni 37                  0.02        2.62884
             Al 49 -- Al 50                  0.25        2.62961
             Al 50 -- Ni 64                  0.12        2.63014
             Al 36 -- Ni 125                 0.16        2.63032
             Al 36 -- Al 37                  0.25        2.63078
             Al 42 -- Ni 118                 0.16        2.63236
             Al 31 -- Ni 147                 0.15        2.63255
             Al 16 -- Ni 178                 0.14        2.63311
            Ni 73  -- Ni 85                  0.11        2.63323
             Al 5  -- Ni 8                   0.18        2.63420
            Ni 32  -- Ni 42                  0.07        2.63446
             Al 4  -- Ni 3                   0.16        2.63447
            Ni 28  -- Ni 78                  0.04        2.63454
             Al 46 -- Al 48                  0.25        2.63485
             Al 15 -- Ni 15                  0.18        2.63533
            Ni 41  -- Ni 161                 0.01        2.63568
            Ni 36  -- Ni 89                 -0.02        2.63590
             Al 39 -- Ni 6                   0.15        2.63596
            Ni 110 -- Ni 112                 0.02        2.63631
            Ni 19  -- Ni 65                 -0.07        2.63660
            Ni 74  -- Ni 75                  0.06        2.63668
            Ni 26  -- Ni 37                 -0.01        2.63689
             Al 30 -- Ni 162                 0.20        2.63786
            Ni 3   -- Ni 59                  0.03        2.63879
            Ni 99  -- Ni 142                -0.01        2.63936
             Al 52 -- Ni 88                  0.17        2.63999
            Ni 40  -- Ni 83                 -0.02        2.64081
             Al 11 -- Ni 117                 0.15        2.64108
            Ni 102 -- Ni 105                 0.03        2.64163
             Al 6  -- Ni 6                   0.17        2.64259
             Al 14 -- Ni 10                  0.18        2.64358
             Al 48 -- Ni 58                  0.12        2.64382
             Al 27 -- Al 72                  0.26        2.64383
             Al 24 -- Al 68                  0.22        2.64417
            Ni 37  -- Ni 47                  0.05        2.64440
             Al 19 -- Ni 181                 0.12        2.64444
            Ni 91  -- Ni 97                  0.04        2.64445
            Ni 19  -- Ni 62                 -0.01        2.64489
            Ni 28  -- Ni 47                 -0.02        2.64501
            Ni 89  -- Ni 130                 0.03        2.64525
            Ni 119 -- Ni 169                 0.07        2.64550
            Ni 79  -- Ni 130                -0.02        2.64581
            Ni 23  -- Ni 76                  0.01        2.64607
             Al 63 -- Ni 58                  0.15        2.64645
             Al 20 -- Ni 20                  0.15        2.64789
            Ni 159 -- Ni 172                 0.05        2.64799
             Al 31 -- Ni 103                 0.11        2.64800
             Al 56 -- Ni 73                  0.15        2.64801
             Al 17 -- Ni 150                 0.14        2.64918
            Ni 15  -- Ni 176                 0.04        2.64929
            Ni 48  -- Ni 56                  0.08        2.65020
             Al 32 -- Ni 67                  0.16        2.65036
            Ni 133 -- Ni 179                -0.03        2.65090
            Ni 106 -- Ni 147                 0.03        2.65143
             Al 72 -- Ni 32                  0.11        2.65222
            Ni 116 -- Ni 117                 0.01        2.65385
            Ni 80  -- Ni 81                  0.07        2.65432
             Al 3  -- Ni 40                  0.13        2.65482
             Al 52 -- Ni 85                  0.13        2.65489
            Ni 102 -- Ni 112                 0.01        2.65536
             Al 56 -- Al 72                  0.24        2.65564
            Ni 139 -- Ni 151                -0.00        2.65614
             Al 28 -- Ni 42                  0.16        2.65763
            Ni 117 -- Ni 118                 0.12        2.65962
            Ni 36  -- Ni 79                  0.00        2.65965
            Ni 102 -- Ni 109                 0.08        2.66029
             Al 20 -- Ni 52                  0.13        2.66106
            Ni 101 -- Ni 102                 0.06        2.66216
             Al 48 -- Al 63                  0.23        2.66353
             Al 61 -- Ni 94                  0.13        2.66362
             Al 70 -- Ni 156                 0.12        2.66597
            Ni 153 -- Ni 166                 0.07        2.66705
            Ni 20  -- Ni 21                  0.08        2.66725
            Ni 35  -- Ni 88                  0.03        2.67065
             Al 22 -- Al 28                  0.21        2.67277
             Al 32 -- Al 49                  0.25        2.67344
            Ni 50  -- Ni 51                  0.03        2.67364
             Al 21 -- Al 33                  0.23        2.67420
             Al 17 -- Ni 61                  0.14        2.67506
             Al 21 -- Al 24                  0.22        2.67804
             Al 5  -- Ni 80                  0.15        2.68208
             Al 34 -- Al 37                  0.19        2.68398
            Ni 168 -- Ni 169                 0.04        2.68609
             Al 34 -- Al 52                  0.20        2.68642
             Al 36 -- Ni 115                 0.14        2.68823
             Al 51 -- Ni 7                   0.13        2.68956
            Ni 162 -- Ni 163                 0.03        2.69008
            Ni 133 -- Ni 170                -0.02        2.69065
            Ni 162 -- Ni 164                 0.04        2.69248
            Ni 116 -- Ni 118                 0.09        2.69371
             Al 27 -- Al 28                  0.29        2.69566
             Al 17 -- Al 63                  0.22        2.69607
             Al 6  -- Al 58                  0.21        2.69625
             Al 45 -- Ni 80                  0.13        2.69721
             Al 3  -- Al 64                  0.21        2.69976
            Ni 75  -- Ni 76                  0.05        2.70004
             Al 39 -- Al 58                  0.22        2.70155
             Al 11 -- Al 39                  0.21        2.70787
            Ni 23  -- Ni 33                 -0.01        2.70881
             Al 45 -- Al 58                  0.21        2.70906
             Al 17 -- Al 19                  0.22        2.71110
            Ni 70  -- Ni 80                  0.03        2.71295
             Al 9  -- Al 62                  0.23        2.71747
             Al 45 -- Al 62                  0.20        2.71754
             Al 6  -- Ni 80                  0.13        2.72007
             Al 27 -- Al 30                  0.27        2.72008
             Al 25 -- Al 26                  0.21        2.72101
            Ni 49  -- Ni 93                  0.04        2.72103
             Al 5  -- Al 62                  0.22        2.72158
             Al 7  -- Ni 90                  0.13        2.72336
             Al 20 -- Al 50                  0.21        2.72398
             Al 20 -- Al 23                  0.21        2.72534
             Al 11 -- Al 51                  0.22        2.72940
             Al 18 -- Al 19                  0.19        2.73136
             Al 22 -- Ni 171                 0.08        2.73202
             Al 50 -- Al 61                  0.18        2.73519
             Al 18 -- Al 26                  0.20        2.73793
             Al 41 -- Al 71                  0.19        2.74093
             Al 16 -- Al 24                  0.18        2.74159
             Al 29 -- Al 70                  0.19        2.74532
             Al 42 -- Al 43                  0.19        2.74788
             Al 69 -- Al 71                  0.19        2.74910
             Al 4  -- Al 24                  0.18        2.75093
             Al 40 -- Al 43                  0.19        2.75205
             Al 42 -- Al 60                  0.23        2.75427
             Al 31 -- Al 38                  0.21        2.75587
             Al 52 -- Al 53                  0.18        2.75640
             Al 36 -- Ni 118                 0.12        2.75707
             Al 40 -- Al 70                  0.19        2.76727
             Al 34 -- Al 53                  0.17        2.76825
             Al 20 -- Al 61                  0.17        2.77688
             Al 37 -- Al 53                  0.15        2.77936
             Al 10 -- Al 58                  0.18        2.77938
             Al 66 -- Al 67                  0.18        2.78191
             Al 29 -- Al 71                  0.17        2.78455
             Al 16 -- Al 33                  0.16        2.78468
             Al 4  -- Al 68                  0.16        2.78622
             Al 8  -- Al 47                  0.19        2.78788
             Al 42 -- Al 55                  0.18        2.79376
             Al 51 -- Ni 6                   0.12        2.79861
             Al 7  -- Al 51                  0.20        2.80087
             Al 56 -- Al 57                  0.16        2.80614
             Al 7  -- Al 64                  0.17        2.81062
             Al 29 -- Al 69                  0.16        2.81861
             Al 9  -- Al 45                  0.14        2.83762
             Al 10 -- Al 45                  0.14        2.84032
             Al 10 -- Al 39                  0.14        2.85503
             Al 43 -- Al 59                  0.14        2.85562
             Al 55 -- Al 59                  0.16        2.85785
             Al 59 -- Al 60                  0.16        2.89045
             Al 31 -- Al 44                  0.11        2.89930
             Al 57 -- Al 72                  0.12        2.90511
             Al 55 -- Al 60                  0.11        2.92560
             Al 42 -- Al 59                  0.13        2.92697
======================================================================
 

Writing analysis data to castep.castep_bin

Writing model to castep.check
 
 A BibTeX formatted list of references used in this run has been written to 
 castep.bib
 
Initialisation time =     11.85 s
Calculation time    =  12542.54 s
Finalisation time   =      5.55 s
Total time          =  12559.95 s
Peak Memory Use     = 2093848 kB
  
Overall parallel efficiency rating: Good (71%)                                  
  
Data was distributed by:-
G-vector (48-way); efficiency rating: Good (72%)                                
