 +-------------------------------------------------+
 |                                                 |
 |      CCC   AA    SSS  TTTTT  EEEEE  PPPP        |
 |     C     A  A  S       T    E      P   P       |
 |     C     AAAA   SS     T    EEE    PPPP        |
 |     C     A  A     S    T    E      P           |
 |      CCC  A  A  SSS     T    EEEEE  P           |
 |                                                 |
 +-------------------------------------------------+
 |                                                 |
 | Welcome to Academic Release CASTEP version 22.11|
 | Ab Initio Total Energy Program                  |
 |                                                 |
 | Authors:                                        |
 | M. Segall, M. Probert, C. Pickard, P. Hasnip,   |
 | S. Clark, K. Refson, J. R. Yates, M. Payne      |
 |                                                 |
 | Contributors:                                   |
 | P. Lindan, P. Haynes, J. White, V. Milman,      |
 | N. Govind, M. Gibson, P. Tulip, V. Cocula,      |
 | B. Montanari, D. Quigley, M. Glover,            |
 | L. Bernasconi, A. Perlov, M. Plummer,           |
 | E. McNellis, J. Meyer, J. Gale, D. Jochym       |
 | J. Aarons, B. Walker, R. Gillen, D. Jones       |
 | T. Green, I. J. Bush, C. J. Armstrong,          |
 | E. J. Higgins, E. L. Brown, M. S. McFly,        |
 | J. Wilkins, B-C. Shih, P. J. P. Byrne,          |
 | R. J. Maurer, J. C. Womack, J. Dziedzic,        |
 | A. Bartok-Partay, L. LeBlanc, T. K. Stenczel,   |
 | J. Kermode, S. Sturniolo, B. Shi, B. Durham     |
 | M. Evans, M. J. Smith                           |
 |                                                 |
 | Copyright (c) 2000 - 2021                       |
 |                                                 |
 |     Distributed under license from Cambridge    |
 |     Enterprise for academic use only.           |
 |                                                 |
 | Please cite                                     |
 |                                                 |
 |     "First principles methods using CASTEP"     |
 |                                                 |
 |         Zeitschrift fuer Kristallographie       |
 |           220(5-6) pp. 567-570 (2005)           |
 |                                                 |
 | S. J. Clark, M. D. Segall, C. J. Pickard,       |
 | P. J. Hasnip, M. J. Probert, K. Refson,         |
 | M. C. Payne                                     |
 |                                                 |
 |       in all publications arising from          |
 |              your use of CASTEP                 |
 |                                                 |
 +-------------------------------------------------+
 |                                                 |
 |              http://www.castep.org              |
 |                                                 |
 +-------------------------------------------------+
 
 
 
 Compiled for linux_x86_64_ifort on Wed, 18 Jan 2023 15:42:19 +0000
 from code version b807d1bba+  Castep221_branch  Wed Sep 14 11:18:35 2022 +0100
 Compiler: Intel Fortran 19.0.5.281; Optimisation: fast
 MATHLIBS: Intel MKL(2019.0.5) (LAPACK version 3.7.0)
 FFT Lib : mkl
 Fundamental constants values: CODATA 2014
 
 Run started: Thu, 27 Apr 2023 01:21:14 +0100
 
 Atomic calculation performed for Al: 1s2 2s2 2p6 3s2 3p1
 
 Converged in 52 iterations to an ae energy of -6606.982 eV
 
   ============================================================                
   | Pseudopotential Report - Date of generation 27-04-2023   |                
   ------------------------------------------------------------                
   | Element: Al Ionic charge:  3.00 Level of theory: RPBE    |                
   | Atomic Solver: Koelling-Harmon                           |                
   |                                                          |                
   |               Reference Electronic Structure             |                
   |         Orbital         Occupation         Energy        |                
   |            3s              2.000           -0.284        |                
   |            3p              1.000           -0.100        |                
   |                                                          |                
   |                 Pseudopotential Definition               |                
   |        Beta     l      e      Rc     scheme   norm       |                
   |          1      0   -0.284   2.192     qc      0         |                
   |          2      0    0.250   2.192     qc      0         |                
   |          3      1   -0.100   2.192     qc      0         |                
   |          4      1    0.250   2.192     qc      0         |                
   |          5      2    0.000   2.000     qc      0         |                
   |          6      2    0.250   2.000     qc      0         |                
   |         loc     3    0.000   2.192     pn      0         |                
   |                                                          |                
   | Augmentation charge Rinner = 1.398                       |                
   | Partial core correction Rc = 1.398                       |                
   ------------------------------------------------------------                
   | "3|2.2|2.2|1.4|4|5|5|30:31:32U2U2"                       |                
   ------------------------------------------------------------                
   |      Author: Chris J. Pickard, Cambridge University      |                
   ============================================================                
 
 Atomic calculation performed for Ni: 1s2 2s2 2p6 3s2 3p6 3d8 4s2
 
 Converged in 109 iterations to an ae energy of -41381.414 eV
 
   ============================================================                
   | Pseudopotential Report - Date of generation 27-04-2023   |                
   ------------------------------------------------------------                
   | Element: Ni Ionic charge: 10.00 Level of theory: RPBE    |                
   | Atomic Solver: Koelling-Harmon                           |                
   |                                                          |                
   |               Reference Electronic Structure             |                
   |         Orbital         Occupation         Energy        |                
   |            3d              8.000           -0.324        |                
   |            4s              2.000           -0.204        |                
   |                                                          |                
   |                 Pseudopotential Definition               |                
   |        Beta     l      e      Rc     scheme   norm       |                
   |          1      0   -0.204   2.401     qc      0         |                
   |          2      0    0.250   2.401     qc      0         |                
   |          3      1    0.000   2.401     qc      0         |                
   |          4      1    0.250   2.401     qc      0         |                
   |          5      2   -0.324   1.999     qc      0         |                
   |          6      2    0.250   1.999     qc      0         |                
   |         loc     3    0.000   2.401     pn      0         |                
   |                                                          |                
   | Augmentation charge Rinner = 1.001                       |                
   | Partial core correction Rc = 1.001                       |                
   ------------------------------------------------------------                
   | "3|2.4|2.4|1.0|8|9|10|40:41:32U2U2(qc=5.5)"              |                
   ------------------------------------------------------------                
   |      Author: Chris J. Pickard, Cambridge University      |                
   ============================================================                
 
 Pseudo atomic calculation performed for Al 3s2 3p1
 
 Converged in 13 iterations to a total energy of -107.6593 eV
 
 Pseudo atomic calculation performed for Ni 3d8 4s2
 
 Converged in 41 iterations to a total energy of -1369.7890 eV
 Calculation parallelised over 128 processes.
 Data is distributed by G-vector(128-way)

 ************************************ Title ************************************
 

 ***************************** General Parameters ******************************
  
 output verbosity                               : normal  (1)
 write checkpoint data to                       : castep.check
 type of calculation                            : geometry optimization
 stress calculation                             : off
 density difference calculation                 : off
 electron localisation func (ELF) calculation   : off
 Hirshfeld analysis                             : off
 polarisation (Berry phase) analysis            : off
 molecular orbital projected DOS                : off
 deltaSCF calculation                           : off
 unlimited duration calculation
 timing information                             : on
 memory usage estimate                          : on
 write extra output files                       : on
 write final potential to formatted file        : off
 write final density to formatted file          : off
 write BibTeX reference list                    : on
 write OTFG pseudopotential files               : on
 write electrostatic potential file             : on
 write bands file                               : on
 checkpoint writing                             : both castep_bin and check files
  
 output         length unit                     : A
 output           mass unit                     : amu
 output           time unit                     : ps
 output         charge unit                     : e
 output           spin unit                     : hbar/2
 output         energy unit                     : eV
 output          force unit                     : eV/A
 output       velocity unit                     : A/ps
 output       pressure unit                     : GPa
 output     inv_length unit                     : 1/A
 output      frequency unit                     : cm-1
 output force constant unit                     : eV/A**2
 output         volume unit                     : A**3
 output   IR intensity unit                     : (D/A)**2/amu
 output         dipole unit                     : D
 output         efield unit                     : eV/A/e
 output        entropy unit                     : J/mol/K
 output    efield chi2 unit                     : pm/V
  
 wavefunctions paging                           : none
 random number generator seed                   : randomised (12115814)
 data distribution                              : optimal for this architecture
 optimization strategy                          : maximize speed(+++)

 *********************** Exchange-Correlation Parameters ***********************
  
 using functional                               : revised Perdew Burke Ernzerhof
 relativistic treatment                         : Koelling-Harmon
 DFT+D: Semi-empirical dispersion correction    : off

 ************************* Pseudopotential Parameters **************************
  
 pseudopotential representation                 : reciprocal space
 <beta|phi> representation                      : reciprocal space
 spin-orbit coupling                            : off

 **************************** Basis Set Parameters *****************************
  
 plane wave basis set cut-off                   :   900.0000   eV
 size of standard grid                          :     1.7500
 size of   fine   gmax                          :    26.8966   1/A
 finite basis set correction                    : none

 **************************** Electronic Parameters ****************************
  
 number of  electrons                           :  2032.    
 net charge of system                           :  0.000    
 treating system as non-spin-polarized
 number of bands                                :       1128

 ********************* Electronic Minimization Parameters **********************
  
 Method: Treating system as metallic with density mixing treatment of electrons,
         and number of  SD  steps               :          1
         and number of  CG  steps               :          4
  
 total energy / atom convergence tol.           : 0.1000E-05   eV
 eigen-energy convergence tolerance             : 0.2261E-06   eV
 max force / atom convergence tol.              : ignored
 convergence tolerance window                   :          3   cycles
 max. number of SCF cycles                      :        200
 number of fixed-spin iterations                :         10
 smearing scheme                                : Gaussian
 smearing width                                 : 0.2000       eV
 Fermi energy convergence tolerance             : 0.2721E-13   eV
 periodic dipole correction                     : NONE
 periodically dump wavefunctions to             : castep.wvfn
 dump wavefunctions every                       :          1   SCF cycles

 ************************** Density Mixing Parameters **************************
  
 density-mixing scheme                          : Pulay
 max. length of mixing history                  :         20
 charge density mixing amplitude                : 0.8000    
 cut-off energy for mixing                      :  900.0       eV

 *********************** Population Analysis Parameters ************************
  
 Population analysis with cutoff                :  3.000       A
 Population analysis output                     : summary and pdos components

 ********************** Geometry Optimization Parameters ***********************
  
 optimization method                            : LBFGS
 max. no. of LBFGS updates                      : unbounded
 variable cell method                           : fixed basis quality
 max. number of steps                           :         30
 estimated bulk modulus                         :  500.0       GPa
 estimated <frequency>                          :  1668.       cm-1
 geom line minimiser                            : on
 with line minimiser tolerance                  :     0.4000
 total energy convergence tolerance             : 0.2000E-04   eV/atom
        max ionic |force| tolerance             : 0.5000E-01   eV/A
 max ionic |displacement| tolerance             : 0.1000E-02   A
   max |stress component| tolerance             : 0.1000       GPa
 convergence tolerance window                   :          2   steps
 backup results every                           :          5   steps
 write geom trajectory file                     : on

 *******************************************************************************
  
 
                           -------------------------------
                                      Unit Cell
                           -------------------------------
        Real Lattice(A)                      Reciprocal Lattice(1/A)
    14.4648280     0.0000000     0.0000000        0.434376773   0.000000000   0.000000000
     0.0000000    14.4648280     0.0000000        0.000000000   0.434376773   0.000000000
     0.0000000     0.0000000    14.4648280        0.000000000   0.000000000   0.434376773
 
                       Lattice parameters(A)       Cell Angles
                    a =     14.464828          alpha =   90.000000
                    b =     14.464828          beta  =   90.000000
                    c =     14.464828          gamma =   90.000000
 
                       Current cell volume =          3026.494030       A**3
                                   density =             4.169887   AMU/A**3
                                           =             6.924261     g/cm^3
 
                           -------------------------------
                                     Cell Contents
                           -------------------------------
                         Total number of ions in cell =  255
                      Total number of species in cell =    2
                        Max number of any one species =  181
 
            xxxxxxxxxxxxxxxxxxxxxxxxxxxxxxxxxxxxxxxxxxxxxxxxxxxxxxxxxxxx
            x  Element    Atom        Fractional coordinates of atoms  x
            x            Number           u          v          w      x
            x----------------------------------------------------------x
            x  Al           1         0.693869   0.937552   0.066527   x 
            x  Al           2         0.941803   0.938468   0.064705   x 
            x  Al           3         0.693557   0.189849   0.066212   x 
            x  Al           4         0.942045   0.187860   0.064505   x 
            x  Al           5         0.699566   0.439437   0.059661   x 
            x  Al           6         0.943671   0.437719   0.063066   x 
            x  Al           7         0.695099   0.686271   0.065264   x 
            x  Al           8         0.943578   0.688484   0.063589   x 
            x  Al           9         0.693052   0.936021   0.312084   x 
            x  Al          10         0.941265   0.938244   0.313880   x 
            x  Al          11         0.691771   0.192513   0.312151   x 
            x  Al          12         0.941647   0.188211   0.314055   x 
            x  Al          13         0.701549   0.440563   0.315044   x 
            x  Al          14         0.943687   0.437879   0.314298   x 
            x  Al          15         0.696246   0.683823   0.310323   x 
            x  Al          16         0.943697   0.688076   0.313876   x 
            x  Al          17         0.696262   0.936085   0.562269   x 
            x  Al          18         0.940800   0.938974   0.563348   x 
            x  Al          19         0.694040   0.189325   0.562866   x 
            x  Al          20         0.941034   0.187217   0.563780   x 
            x  Al          21         0.700943   0.438776   0.569646   x 
            x  Al          22         0.943492   0.437310   0.565265   x 
            x  Al          23         0.700961   0.686900   0.569639   x 
            x  Al          24         0.943668   0.688651   0.564615   x 
            x  Al          25         0.695656   0.938030   0.815945   x 
            x  Al          26         0.941382   0.939107   0.814759   x 
            x  Al          27         0.693301   0.188234   0.816148   x 
            x  Al          28         0.941788   0.186985   0.814457   x 
            x  Al          29         0.694805   0.437721   0.814261   x 
            x  Al          30         0.944157   0.437129   0.814528   x 
            x  Al          31         0.696297   0.687854   0.813945   x 
            x  Al          32         0.943973   0.689086   0.815008   x 
            x  Al          33         0.453243   0.811341   0.936446   x 
            x  Al          34         0.180334   0.687180   0.808106   x 
            x  Al          35         0.317315   0.819452   0.806452   x 
            x  Al          36         0.067393   0.810016   0.056317   x 
            x  Al          37         0.445575   0.564288   0.939377   x 
            x  Al          38         0.316839   0.559092   0.804650   x 
            x  Al          39         0.063696   0.323675   0.065509   x 
            x  Al          40         0.441940   0.319763   0.943446   x 
            x  Al          41         0.197614   0.316920   0.928921   x 
            x  Al          42         0.062377   0.178491   0.933390   x 
            x  Al          43         0.322610   0.817450   0.573139   x 
            x  Al          44         0.196391   0.434876   0.561889   x 
            x  Al          45         0.063523   0.434759   0.687570   x 
            x  Al          46         0.448612   0.314023   0.688508   x 
            x  Al          47         0.317514   0.297317   0.561394   x 
            x  Al          48         0.055445   0.194438   0.689570   x 
            x  Al          49         0.455413   0.057253   0.685645   x 
            x  Al          50         0.451723   0.184841   0.820442   x 
            x  Al          51         0.315013   0.062052   0.557275   x 
            x  Al          52         0.187523   0.064209   0.689295   x 
            x  Al          53         0.055793   0.932641   0.686922   x 
            x  Al          54         0.441611   0.686851   0.313266   x 
            x  Al          55         0.563836   0.684666   0.445455   x 
            x  Al          56         0.310721   0.683515   0.185333   x 
            x  Al          57         0.192597   0.814121   0.441982   x 
            x  Al          58         0.066813   0.806458   0.309193   x 
            x  Al          59         0.562952   0.440946   0.445908   x 
            x  Al          60         0.200948   0.571888   0.442390   x 
            x  Al          61         0.425485   0.439144   0.324395   x 
            x  Al          62         0.069239   0.565155   0.314856   x 
            x  Al          63         0.449305   0.196795   0.310076   x 
            x  Al          64         0.073474   0.321269   0.316916   x 
            x  Al          65         0.454361   0.057331   0.437987   x 
            x  Al          66         0.309267   0.053351   0.312360   x 
            x  Al          67         0.311713   0.815161   0.058388   x 
            x  Al          68         0.559492   0.441915   0.187257   x 
            x  Al          69         0.308361   0.440549   0.181678   x 
            x  Al          70         0.067695   0.563059   0.056285   x 
            x  Al          71         0.315581   0.055728   0.056340   x 
            x  Al          72         0.316546   0.056518   0.822995   x 
            x  Al          73         0.308547   0.195508   0.181551   x 
            x  Al          74         0.072658   0.179676   0.181830   x 
            x  Ni           1         0.691228   0.063726   0.189447   x 
            x  Ni           2         0.817257   0.937688   0.189576   x 
            x  Ni           3         0.817175   0.063619   0.065563   x 
            x  Ni           4         0.941427   0.063605   0.189579   x 
            x  Ni           5         0.691432   0.319342   0.188340   x 
            x  Ni           6         0.816361   0.189753   0.189519   x 
            x  Ni           7         0.818903   0.313096   0.063803   x 
            x  Ni           8         0.943065   0.312788   0.188904   x 
            x  Ni           9         0.692300   0.559366   0.188019   x 
            x  Ni          10         0.820683   0.438645   0.187962   x 
            x  Ni          11         0.820169   0.563452   0.062952   x 
            x  Ni          12         0.944345   0.563083   0.188349   x 
            x  Ni          13         0.691920   0.810898   0.188902   x 
            x  Ni          14         0.819176   0.686686   0.188200   x 
            x  Ni          15         0.817782   0.812558   0.064572   x 
            x  Ni          16         0.942542   0.813056   0.188956   x 
            x  Ni          17         0.573695   0.061824   0.561681   x 
            x  Ni          18         0.815730   0.937168   0.437093   x 
            x  Ni          19         0.815762   0.063956   0.313391   x 
            x  Ni          20         0.940598   0.063296   0.438367   x 
            x  Ni          21         0.691942   0.317596   0.439947   x 
            x  Ni          22         0.815538   0.189081   0.437861   x 
            x  Ni          23         0.818739   0.313838   0.314065   x 
            x  Ni          24         0.942505   0.312533   0.439414   x 
            x  Ni          25         0.692472   0.563210   0.441565   x 
            x  Ni          26         0.819961   0.439005   0.440734   x 
            x  Ni          27         0.821173   0.563323   0.314122   x 
            x  Ni          28         0.944356   0.563181   0.439713   x 
            x  Ni          29         0.692307   0.807364   0.438290   x 
            x  Ni          30         0.818843   0.686766   0.439188   x 
            x  Ni          31         0.817808   0.811372   0.313444   x 
            x  Ni          32         0.942364   0.813229   0.438540   x 
            x  Ni          33         0.692279   0.063294   0.688904   x 
            x  Ni          34         0.817221   0.938750   0.689287   x 
            x  Ni          35         0.815451   0.063294   0.562651   x 
            x  Ni          36         0.941040   0.063173   0.688920   x 
            x  Ni          37         0.692095   0.312690   0.690680   x 
            x  Ni          38         0.816480   0.187493   0.689503   x 
            x  Ni          39         0.818790   0.312297   0.564982   x 
            x  Ni          40         0.942820   0.311464   0.689796   x 
            x  Ni          41         0.694761   0.562567   0.691702   x 
            x  Ni          42         0.820608   0.437267   0.691786   x 
            x  Ni          43         0.821634   0.563107   0.566001   x 
            x  Ni          44         0.944555   0.562997   0.690429   x 
            x  Ni          45         0.695095   0.812612   0.690099   x 
            x  Ni          46         0.821386   0.688385   0.691308   x 
            x  Ni          47         0.819526   0.813081   0.563870   x 
            x  Ni          48         0.942879   0.814550   0.689692   x 
            x  Ni          49         0.691732   0.063628   0.942601   x 
            x  Ni          50         0.816833   0.938222   0.940977   x 
            x  Ni          51         0.816222   0.063403   0.815230   x 
            x  Ni          52         0.941601   0.063133   0.939792   x 
            x  Ni          53         0.692390   0.313913   0.939287   x 
            x  Ni          54         0.817037   0.187956   0.940238   x 
            x  Ni          55         0.818143   0.311797   0.814699   x 
            x  Ni          56         0.943024   0.311921   0.938883   x 
            x  Ni          57         0.693290   0.563550   0.937658   x 
            x  Ni          58         0.820110   0.437904   0.937431   x 
            x  Ni          59         0.820170   0.563155   0.814890   x 
            x  Ni          60         0.944159   0.563390   0.938686   x 
            x  Ni          61         0.692068   0.811628   0.940558   x 
            x  Ni          62         0.818698   0.688384   0.939272   x 
            x  Ni          63         0.818506   0.813808   0.815518   x 
            x  Ni          64         0.942787   0.813984   0.939659   x 
            x  Ni          65         0.062384   0.932323   0.185438   x 
            x  Ni          66         0.065613   0.058076   0.060166   x 
            x  Ni          67         0.193711   0.059384   0.183300   x 
            x  Ni          68         0.315809   0.935317   0.184997   x 
            x  Ni          69         0.188279   0.934271   0.059191   x 
            x  Ni          70         0.435443   0.066062   0.189200   x 
            x  Ni          71         0.566576   0.936155   0.189396   x 
            x  Ni          72         0.440771   0.189705   0.064714   x 
            x  Ni          73         0.444276   0.935129   0.064002   x 
            x  Ni          74         0.187506   0.189883   0.055568   x 
            x  Ni          75         0.186559   0.316083   0.185964   x 
            x  Ni          76         0.436825   0.318861   0.187090   x 
            x  Ni          77         0.567022   0.193170   0.187992   x 
            x  Ni          78         0.567931   0.317334   0.064895   x 
            x  Ni          79         0.312576   0.316172   0.059597   x 
            x  Ni          80         0.067260   0.444366   0.189975   x 
            x  Ni          81         0.188837   0.564738   0.186008   x 
            x  Ni          82         0.440266   0.441765   0.062917   x 
            x  Ni          83         0.313556   0.565934   0.057747   x 
            x  Ni          84         0.436591   0.562282   0.188418   x 
            x  Ni          85         0.566256   0.324682   0.314392   x 
            x  Ni          86         0.568364   0.563343   0.063849   x 
            x  Ni          87         0.063104   0.685624   0.183504   x 
            x  Ni          88         0.063081   0.686220   0.935569   x 
            x  Ni          89         0.189784   0.809793   0.184736   x 
            x  Ni          90         0.440180   0.688784   0.062013   x 
            x  Ni          91         0.190567   0.687918   0.056352   x 
            x  Ni          92         0.438906   0.808790   0.186996   x 
            x  Ni          93         0.566124   0.683519   0.190167   x 
            x  Ni          94         0.568576   0.810579   0.065798   x 
            x  Ni          95         0.317527   0.690279   0.929194   x 
            x  Ni          96         0.062922   0.936819   0.437051   x 
            x  Ni          97         0.067695   0.061329   0.310399   x 
            x  Ni          98         0.189016   0.059755   0.438358   x 
            x  Ni          99         0.317886   0.935672   0.439481   x 
            x  Ni         100         0.187359   0.932631   0.312200   x 
            x  Ni         101         0.572455   0.933597   0.436323   x 
            x  Ni         102         0.566758   0.063896   0.310175   x 
            x  Ni         103         0.443646   0.936194   0.311879   x 
            x  Ni         104         0.064602   0.187270   0.436274   x 
            x  Ni         105         0.194983   0.310975   0.440999   x 
            x  Ni         106         0.320207   0.180365   0.431860   x 
            x  Ni         107         0.312537   0.311055   0.312505   x 
            x  Ni         108         0.189534   0.186157   0.311427   x 
            x  Ni         109         0.438815   0.311954   0.439975   x 
            x  Ni         110         0.690728   0.063389   0.435675   x 
            x  Ni         111         0.569575   0.191327   0.435713   x 
            x  Ni         112         0.070932   0.440817   0.439617   x 
            x  Ni         113         0.191693   0.690117   0.314448   x 
            x  Ni         114         0.199125   0.442049   0.319909   x 
            x  Ni         115         0.435855   0.563949   0.442646   x 
            x  Ni         116         0.564657   0.558410   0.316909   x 
            x  Ni         117         0.313900   0.567389   0.313610   x 
            x  Ni         118         0.067204   0.688779   0.439597   x 
            x  Ni         119         0.319675   0.694350   0.442292   x 
            x  Ni         120         0.315669   0.812865   0.311543   x 
            x  Ni         121         0.442875   0.813027   0.439787   x 
            x  Ni         122         0.567180   0.807734   0.313669   x 
            x  Ni         123         0.063094   0.063305   0.565435   x 
            x  Ni         124         0.188974   0.938390   0.565217   x 
            x  Ni         125         0.574681   0.935816   0.688425   x 
            x  Ni         126         0.447507   0.938685   0.562781   x 
            x  Ni         127         0.064012   0.312926   0.561750   x 
            x  Ni         128         0.191227   0.308095   0.688341   x 
            x  Ni         129         0.188821   0.184434   0.564439   x 
            x  Ni         130         0.322905   0.177744   0.692183   x 
            x  Ni         131         0.570023   0.188165   0.689511   x 
            x  Ni         132         0.568722   0.313800   0.563696   x 
            x  Ni         133         0.446663   0.183105   0.562791   x 
            x  Ni         134         0.068638   0.561790   0.561048   x 
            x  Ni         135         0.189293   0.560841   0.686538   x 
            x  Ni         136         0.317330   0.431659   0.684713   x 
            x  Ni         137         0.316237   0.564329   0.568374   x 
            x  Ni         138         0.442690   0.561001   0.688747   x 
            x  Ni         139         0.569164   0.438481   0.686374   x 
            x  Ni         140         0.568161   0.562871   0.566591   x 
            x  Ni         141         0.436343   0.434900   0.560805   x 
            x  Ni         142         0.062700   0.687868   0.684359   x 
            x  Ni         143         0.064003   0.813616   0.561226   x 
            x  Ni         144         0.189540   0.815423   0.687407   x 
            x  Ni         145         0.315816   0.689522   0.692375   x 
            x  Ni         146         0.192936   0.691635   0.566388   x 
            x  Ni         147         0.445444   0.816093   0.690969   x 
            x  Ni         148         0.570545   0.687568   0.688181   x 
            x  Ni         149         0.570169   0.811131   0.564690   x 
            x  Ni         150         0.442818   0.689528   0.568377   x 
            x  Ni         151         0.061411   0.937419   0.935116   x 
            x  Ni         152         0.061997   0.060790   0.809293   x 
            x  Ni         153         0.189708   0.060300   0.935566   x 
            x  Ni         154         0.319125   0.931980   0.936648   x 
            x  Ni         155         0.318470   0.946649   0.688375   x 
            x  Ni         156         0.187602   0.937770   0.809576   x 
            x  Ni         157         0.444450   0.061680   0.940724   x 
            x  Ni         158         0.571617   0.937478   0.941658   x 
            x  Ni         159         0.571506   0.061982   0.816283   x 
            x  Ni         160         0.448146   0.938793   0.814499   x 
            x  Ni         161         0.059969   0.436046   0.934345   x 
            x  Ni         162         0.188814   0.440680   0.056492   x 
            x  Ni         163         0.318063   0.187851   0.938651   x 
            x  Ni         164         0.323148   0.309552   0.810891   x 
            x  Ni         165         0.189953   0.186558   0.812787   x 
            x  Ni         166         0.565855   0.062971   0.067734   x 
            x  Ni         167         0.567452   0.313936   0.816016   x 
            x  Ni         168         0.568657   0.189874   0.944432   x 
            x  Ni         169         0.062177   0.559179   0.811386   x 
            x  Ni         170         0.060284   0.313603   0.816512   x 
            x  Ni         171         0.191848   0.562414   0.930077   x 
            x  Ni         172         0.318304   0.441236   0.934523   x 
            x  Ni         173         0.190628   0.436654   0.808081   x 
            x  Ni         174         0.568878   0.440088   0.939942   x 
            x  Ni         175         0.568795   0.563180   0.812764   x 
            x  Ni         176         0.444928   0.438607   0.812793   x 
            x  Ni         177         0.062995   0.813172   0.811988   x 
            x  Ni         178         0.190480   0.812022   0.931123   x 
            x  Ni         179         0.444834   0.687531   0.811914   x 
            x  Ni         180         0.570192   0.686162   0.939158   x 
            x  Ni         181         0.571261   0.812103   0.813358   x 
            xxxxxxxxxxxxxxxxxxxxxxxxxxxxxxxxxxxxxxxxxxxxxxxxxxxxxxxxxxxx
 
 
                         No user defined ionic velocities
 
                           -------------------------------
                                   Details of Species
                           -------------------------------
 
                               Mass of species in AMU
                                    Al   26.9815400
                                    Ni   58.6934000
 
                          Electric Quadrupole Moment (Barn)
                                    Al    0.1466000 Isotope 27
                                    Ni    0.1620000 Isotope 61
 
                          Files used for pseudopotentials:
                                    Al 3|2.2|2.2|1.4|4|5|5|30:31:32U2U2
                                    Ni 3|2.4|2.4|1.0|8|9|10|40:41:32U2U2(qc=5.5)
 
                           -------------------------------
                              k-Points For BZ Sampling
                           -------------------------------
                       MP grid size for SCF calculation is  1  1  1
                            with an offset of   0.000  0.000  0.000
                       Number of kpoints used =             1
 
                           -------------------------------
                               Symmetry and Constraints
                           -------------------------------
 
                      Maximum deviation from symmetry =  0.00000         ANG
 
                      Number of symmetry operations   =           1
                      Number of ionic constraints     =           3
                      Point group of crystal =     1: C1, 1, 1
                      Space group of crystal =     1: P1, P 1
 
             Set iprint > 1 for details on symmetry rotations/translations
 
                         Centre of mass is constrained
             Set iprint > 1 for details of linear ionic constraints
 
                         Number of cell constraints= 6
                         Cell constraints are:  0 0 0 0 0 0
 
                         External pressure/stress (GPa)
                          0.00000   0.00000   0.00000
                                    0.00000   0.00000
                                              0.00000
 
+---------------- MEMORY AND SCRATCH DISK ESTIMATES PER PROCESS --------------+
|                                                     Memory          Disk    |
| Baseline code, static data and system overhead      855.0 MB         0.0 MB |
| BLAS internal memory storage                          0.0 MB         0.0 MB |
| Model and support data                              334.9 MB         0.0 MB |
| Electronic energy minimisation requirements          66.4 MB         0.0 MB |
| Force calculation requirements                        1.7 MB         0.0 MB |
|                                               ----------------------------- |
| Approx. total storage required per process         1256.4 MB         0.0 MB |
|                                                                             |
| Requirements will fluctuate during execution and may exceed these estimates |
+-----------------------------------------------------------------------------+
Calculating approximate eigenstates for fixed initial Hamiltonian
Cut-off for approx. calculation is  550.359 eV
Resetting cut-off to  900.000 eV
Calculating total energy with cut-off of  900.000 eV.
------------------------------------------------------------------------ <-- SCF
SCF loop      Energy           Fermi           Energy gain       Timer   <-- SCF
                               energy          per atom          (sec)   <-- SCF
------------------------------------------------------------------------ <-- SCF
Initial  -2.57911762E+005  0.00000000E+000                      1400.54  <-- SCF
      1  -2.57432557E+005  3.37573734E+000  -1.87923286E+000    1431.54  <-- SCF
      2  -2.57581063E+005  3.47916743E+000   5.82376166E-001    1465.30  <-- SCF
      3  -2.58704516E+005  9.07893749E+000   4.40569718E+000    1501.43  <-- SCF
      4  -2.58758900E+005  9.07476426E+000   2.13270896E-001    1534.84  <-- SCF
      5  -2.57678883E+005  6.47974803E+000  -4.23536179E+000    1591.30  <-- SCF
      6  -2.57813697E+005  6.49908318E+000   5.28682816E-001    1627.25  <-- SCF
      7  -2.57521992E+005  4.88716020E+000  -1.14394105E+000    1666.61  <-- SCF
      8  -2.57479868E+005  4.62977394E+000  -1.65193453E-001    1708.14  <-- SCF
      9  -2.57476487E+005  4.61646906E+000  -1.32557785E-002    1739.64  <-- SCF
     10  -2.57478878E+005  4.69023826E+000   9.37674759E-003    1771.59  <-- SCF
     11  -2.57473316E+005  4.66106285E+000  -2.18123374E-002    1816.28  <-- SCF
     12  -2.57474689E+005  4.66691064E+000   5.38432219E-003    1857.50  <-- SCF
     13  -2.57474499E+005  4.62723235E+000  -7.45551240E-004    1897.65  <-- SCF
     14  -2.57472328E+005  4.61046691E+000  -8.51519502E-003    1929.96  <-- SCF
     15  -2.57472565E+005  4.61602586E+000   9.30535518E-004    1962.89  <-- SCF
     16  -2.57472232E+005  4.61552783E+000  -1.30765651E-003    1994.52  <-- SCF
     17  -2.57472109E+005  4.61353200E+000  -4.79641171E-004    2039.66  <-- SCF
     18  -2.57472139E+005  4.61452514E+000   1.17078958E-004    2083.58  <-- SCF
     19  -2.57472113E+005  4.61377765E+000  -1.02829957E-004    2130.68  <-- SCF
     20  -2.57472100E+005  4.61369381E+000  -5.15339192E-005    2188.67  <-- SCF
     21  -2.57472104E+005  4.61435012E+000   1.49425262E-005    2227.23  <-- SCF
     22  -2.57472100E+005  4.61459909E+000  -1.60460361E-005    2261.52  <-- SCF
     23  -2.57472099E+005  4.61462544E+000  -1.52256311E-006    2285.37  <-- SCF
     24  -2.57472099E+005  4.61441688E+000   5.96506755E-007    2308.19  <-- SCF
     25  -2.57472099E+005  4.61424782E+000  -7.11852366E-007    2334.99  <-- SCF
------------------------------------------------------------------------ <-- SCF
 
Final energy, E             =  -257468.0966598     eV
Final free energy (E-TS)    =  -257472.0991562     eV
(energies not corrected for finite basis set)
 
NB est. 0K energy (E-0.5TS)      =  -257470.0979080     eV
 

Writing analysis data to castep.castep_bin

Writing model to castep.check
 
+---------------- MEMORY AND SCRATCH DISK ESTIMATES PER PROCESS --------------+
|                                                     Memory          Disk    |
| Model and support data                              345.6 MB         0.0 MB |
| Electronic energy minimisation requirements          66.4 MB         0.0 MB |
| Geometry minimisation requirements                   80.6 MB         0.0 MB |
|                                               ----------------------------- |
| Approx. total storage required per process          492.6 MB         0.0 MB |
|                                                                             |
| Requirements will fluctuate during execution and may exceed these estimates |
+-----------------------------------------------------------------------------+
 
 
 ************************************** Forces **************************************
 *                                                                                  *
 *                           Cartesian components (eV/A)                            *
 * -------------------------------------------------------------------------------- *
 *                         x                    y                    z              *
 *                                                                                  *
 * Al              1     -0.13463              0.00839             -0.01872         *
 * Al              2     -0.86368              0.49204             -0.08877         *
 * Al              3     -0.08457             -0.04338             -0.01226         *
 * Al              4     -1.93818             -0.60355             -0.05413         *
 * Al              5     -0.10855             -0.00851             -0.11276         *
 * Al              6     -2.25345              0.71960              0.06927         *
 * Al              7     -0.17231              0.05114             -0.02368         *
 * Al              8     -1.85325             -0.15482             -0.08567         *
 * Al              9     -0.06109              0.00185              0.01509         *
 * Al             10     -0.56852              0.51480             -0.03073         *
 * Al             11     -0.09187             -0.06517              0.01223         *
 * Al             12     -0.80494             -0.48755              0.40100         *
 * Al             13      0.12105             -0.02487             -0.00019         *
 * Al             14     -1.52195              0.22081              0.09345         *
 * Al             15      0.04872              0.08183             -0.12237         *
 * Al             16     -1.87352             -0.23801              0.04853         *
 * Al             17     -0.19754             -0.02470             -0.01298         *
 * Al             18     -1.24060              0.00467             -1.23807         *
 * Al             19     -0.12285             -0.03287             -0.00033         *
 * Al             20     -1.12413             -0.04300             -1.21144         *
 * Al             21     -0.00749              0.00693              0.09591         *
 * Al             22     -0.98979              0.10951             -1.10729         *
 * Al             23      0.01545              0.02550              0.12171         *
 * Al             24     -0.30860             -0.08980             -0.20338         *
 * Al             25     -0.14481             -0.05303             -0.00597         *
 * Al             26     -1.32625             -0.06678              0.84886         *
 * Al             27     -0.17309             -0.00344              0.00341         *
 * Al             28     -2.38544             -0.06377              0.10697         *
 * Al             29     -0.18863              0.06045              0.01020         *
 * Al             30     -1.42325              0.05903              0.54366         *
 * Al             31     -0.18590              0.02722              0.00398         *
 * Al             32     -0.28122             -0.06765             -0.16098         *
 * Al             33      0.15825              0.08602              0.12712         *
 * Al             34      0.05090              0.09705              0.06537         *
 * Al             35      0.03789             -0.01902             -0.12709         *
 * Al             36      1.35570              0.40738              0.29371         *
 * Al             37      0.17568              0.06289              0.22126         *
 * Al             38      0.04832             -0.26440             -0.05154         *
 * Al             39      1.72798             -0.62881             -0.05258         *
 * Al             40      0.10135              0.05447              0.24649         *
 * Al             41      0.10325              0.09369              0.04580         *
 * Al             42      1.69559             -0.02197              0.36835         *
 * Al             43      0.17073             -0.12397             -0.02405         *
 * Al             44      0.15297             -0.02078             -0.07560         *
 * Al             45      1.51296              0.11423              0.55386         *
 * Al             46      0.25847              0.29665             -0.10014         *
 * Al             47      0.06881             -0.00157             -0.18937         *
 * Al             48      2.52647             -0.15407             -0.13944         *
 * Al             49      0.16391             -0.15785             -0.19832         *
 * Al             50     -0.01181              0.00355              0.16774         *
 * Al             51     -0.12029              0.04804             -0.06836         *
 * Al             52      0.00416             -0.08622              0.03769         *
 * Al             53      2.32976             -0.01286              0.08561         *
 * Al             54     -0.21041              0.09145             -0.02065         *
 * Al             55     -0.03980              0.14304              0.19418         *
 * Al             56     -0.26419              0.01642             -0.00399         *
 * Al             57     -0.04386             -0.02625             -0.15043         *
 * Al             58      0.89368              0.78450             -0.16426         *
 * Al             59     -0.08105             -0.16193              0.07519         *
 * Al             60      0.09181             -0.01076             -0.08978         *
 * Al             61     -0.22418             -0.05120              0.17162         *
 * Al             62      1.02413             -0.15530             -0.27291         *
 * Al             63      0.07853              0.18367              0.07335         *
 * Al             64      1.02440             -0.53520              0.18751         *
 * Al             65      0.29362             -0.08071              0.00370         *
 * Al             66     -0.11501             -0.21622             -0.07344         *
 * Al             67      0.04387              0.06045              0.12077         *
 * Al             68      0.11966             -0.08838             -0.22212         *
 * Al             69     -0.15577              0.00687             -0.14143         *
 * Al             70      1.43733             -0.02742              0.20818         *
 * Al             71      0.13088             -0.01155             -0.04596         *
 * Al             72     -0.13938              0.00059              0.20070         *
 * Al             73     -0.04990              0.23525             -0.01144         *
 * Al             74      0.88672             -0.30709              0.72387         *
 * Ni              1      0.06324              0.01406             -0.08199         *
 * Ni              2      0.01247             -0.04087              0.00278         *
 * Ni              3      0.05057             -0.00563              0.02816         *
 * Ni              4     -0.02757              0.15226             -0.08844         *
 * Ni              5      0.12809              0.06603              0.09899         *
 * Ni              6      0.12233             -0.00982              0.02879         *
 * Ni              7     -0.04260              0.02785              0.02255         *
 * Ni              8      0.43872             -0.38202              0.08317         *
 * Ni              9      0.12852             -0.07662              0.15121         *
 * Ni             10     -0.00127              0.02499              0.00911         *
 * Ni             11     -0.11894             -0.04165              0.02906         *
 * Ni             12     -0.37461              0.00852              0.01861         *
 * Ni             13      0.03457             -0.03794              0.10126         *
 * Ni             14      0.10792              0.01355             -0.01929         *
 * Ni             15     -0.05460              0.02153             -0.03947         *
 * Ni             16     -0.37988             -0.27471             -0.05239         *
 * Ni             17      0.12975              0.03793              0.01232         *
 * Ni             18      0.14192              0.05755              0.00436         *
 * Ni             19      0.06565             -0.02151             -0.02774         *
 * Ni             20      0.00065              0.01699             -0.11051         *
 * Ni             21      0.13757              0.16297             -0.10120         *
 * Ni             22      0.10327             -0.01894              0.02671         *
 * Ni             23     -0.02519              0.02307              0.02051         *
 * Ni             24     -0.03566              0.12354             -0.38634         *
 * Ni             25      0.14910              0.01873             -0.04544         *
 * Ni             26      0.09653             -0.04594              0.00506         *
 * Ni             27     -0.16175             -0.02271              0.04150         *
 * Ni             28     -0.14547             -0.07337             -0.29994         *
 * Ni             29      0.08584             -0.14534              0.01884         *
 * Ni             30      0.14462              0.00371              0.00974         *
 * Ni             31     -0.07518              0.01143              0.03111         *
 * Ni             32     -0.20170             -0.07371             -0.35023         *
 * Ni             33      0.17355             -0.05257              0.05707         *
 * Ni             34     -0.00371             -0.05295             -0.01337         *
 * Ni             35      0.07684              0.01519             -0.03061         *
 * Ni             36     -0.50471              0.00058             -0.13382         *
 * Ni             37      0.13476              0.06844             -0.13209         *
 * Ni             38     -0.05671              0.03941             -0.01395         *
 * Ni             39     -0.07237              0.04006             -0.02674         *
 * Ni             40     -0.74253              0.27219             -0.17843         *
 * Ni             41      0.05237              0.03105             -0.16242         *
 * Ni             42     -0.04805              0.04335             -0.03250         *
 * Ni             43     -0.14720             -0.00890             -0.00835         *
 * Ni             44     -0.25689             -0.33401             -0.32513         *
 * Ni             45      0.08471             -0.09237             -0.13027         *
 * Ni             46     -0.07530             -0.03703              0.00103         *
 * Ni             47     -0.09747             -0.03774              0.00298         *
 * Ni             48     -0.59728             -0.02393             -0.15090         *
 * Ni             49      0.16225             -0.00059              0.03690         *
 * Ni             50      0.01583             -0.05282              0.00127         *
 * Ni             51      0.08478             -0.01634              0.00870         *
 * Ni             52     -0.54340              0.10517             -0.10019         *
 * Ni             53      0.13860             -0.03206              0.10654         *
 * Ni             54      0.04852              0.04427              0.02310         *
 * Ni             55      0.01044              0.04106             -0.02414         *
 * Ni             56     -0.25948             -0.53477              0.53111         *
 * Ni             57      0.11374             -0.02989              0.04247         *
 * Ni             58     -0.00485              0.00105             -0.00369         *
 * Ni             59     -0.04102              0.00282             -0.06425         *
 * Ni             60     -0.48810             -0.02654              0.19354         *
 * Ni             61      0.08327              0.03332             -0.02394         *
 * Ni             62      0.04808             -0.02876             -0.01032         *
 * Ni             63     -0.06440             -0.02354             -0.04902         *
 * Ni             64     -0.36471             -0.12737              0.17671         *
 * Ni             65      0.68481              0.49285              0.15906         *
 * Ni             66      0.20517              0.39867              0.23005         *
 * Ni             67      0.02275             -0.20652             -0.01811         *
 * Ni             68     -0.02742             -0.15594              0.19075         *
 * Ni             69      0.06529              0.33031              0.03596         *
 * Ni             70      0.05522              0.06492              0.18648         *
 * Ni             71     -0.20052              0.00455             -0.04013         *
 * Ni             72     -0.03368             -0.20515              0.08584         *
 * Ni             73      0.08611             -0.04987              0.02256         *
 * Ni             74     -0.14287              0.13056             -0.10562         *
 * Ni             75     -0.12788             -0.08717              0.07450         *
 * Ni             76      0.24919             -0.11354             -0.00416         *
 * Ni             77     -0.07448             -0.06256             -0.17976         *
 * Ni             78     -0.07663              0.00971              0.10282         *
 * Ni             79      0.16767              0.00962              0.04651         *
 * Ni             80      0.21169             -0.33640             -0.03573         *
 * Ni             81     -0.07186             -0.03584              0.06356         *
 * Ni             82     -0.19361              0.00292             -0.14705         *
 * Ni             83      0.07553             -0.18310             -0.05570         *
 * Ni             84      0.26125              0.09434              0.00302         *
 * Ni             85     -0.01859              0.17808             -0.03166         *
 * Ni             86     -0.07135              0.00392              0.17171         *
 * Ni             87      0.70103              0.19818              0.16142         *
 * Ni             88      0.43653              0.15695              0.24422         *
 * Ni             89      0.11739              0.17876              0.01525         *
 * Ni             90      0.03894              0.13167              0.07262         *
 * Ni             91      0.36175             -0.09199             -0.11063         *
 * Ni             92      0.13692              0.08019              0.05413         *
 * Ni             93     -0.04801              0.05507             -0.25993         *
 * Ni             94     -0.07781             -0.07610              0.22746         *
 * Ni             95     -0.19894             -0.03819              0.05502         *
 * Ni             96      0.56337              0.12277             -0.06048         *
 * Ni             97      0.05803              0.03612              0.18751         *
 * Ni             98     -0.31491              0.12290             -0.12808         *
 * Ni             99      0.12198              0.01523             -0.08461         *
 * Ni            100      0.03428              0.08950             -0.08762         *
 * Ni            101     -0.21815             -0.12255              0.10745         *
 * Ni            102     -0.10911             -0.06057             -0.11397         *
 * Ni            103     -0.16880             -0.04223             -0.04005         *
 * Ni            104      0.39007             -0.07338              0.03690         *
 * Ni            105     -0.05968             -0.08850             -0.02254         *
 * Ni            106      0.05985             -0.08489             -0.13117         *
 * Ni            107     -0.00583             -0.05779              0.14902         *
 * Ni            108      0.06375             -0.06566              0.14939         *
 * Ni            109      0.18110             -0.08197             -0.12936         *
 * Ni            110      0.11399              0.03851             -0.08649         *
 * Ni            111     -0.21636              0.07262              0.30011         *
 * Ni            112      0.08396             -0.04847             -0.20113         *
 * Ni            113      0.06528              0.00603             -0.03986         *
 * Ni            114     -0.01618             -0.09425             -0.09804         *
 * Ni            115      0.07515              0.09834             -0.05187         *
 * Ni            116     -0.06401             -0.05683             -0.11401         *
 * Ni            117      0.28021              0.02385             -0.07639         *
 * Ni            118      0.03231             -0.02192             -0.15334         *
 * Ni            119     -0.10478             -0.10522              0.17343         *
 * Ni            120      0.26797              0.10098             -0.13213         *
 * Ni            121      0.29972              0.16999             -0.23247         *
 * Ni            122     -0.09116             -0.04838              0.06869         *
 * Ni            123      0.30842             -0.01526             -0.13068         *
 * Ni            124      0.07338              0.22167             -0.12472         *
 * Ni            125     -0.30525             -0.10882              0.10512         *
 * Ni            126     -0.01504             -0.02320              0.05915         *
 * Ni            127      0.42638             -0.02164             -0.03122         *
 * Ni            128      0.06284              0.20207              0.07363         *
 * Ni            129     -0.05530             -0.18766             -0.19083         *
 * Ni            130      0.07926             -0.14111              0.23759         *
 * Ni            131     -0.33495             -0.04642             -0.00054         *
 * Ni            132      0.00173             -0.00542             -0.16661         *
 * Ni            133     -0.00363              0.09309             -0.03524         *
 * Ni            134      0.14484             -0.04856              0.50363         *
 * Ni            135     -0.07635              0.20866             -0.10056         *
 * Ni            136      0.04099             -0.07881             -0.05128         *
 * Ni            137      0.00648              0.03499             -0.15113         *
 * Ni            138      0.22810              0.05325             -0.24377         *
 * Ni            139     -0.20788              0.09546              0.24883         *
 * Ni            140     -0.16309             -0.03719              0.08978         *
 * Ni            141     -0.16188              0.22487              0.42490         *
 * Ni            142      0.48049              0.03398              0.10596         *
 * Ni            143      0.13619              0.03025              0.31792         *
 * Ni            144     -0.18161             -0.16765              0.00664         *
 * Ni            145      0.01543             -0.17577              0.06874         *
 * Ni            146      0.01992              0.07469              0.19831         *
 * Ni            147      0.31296             -0.10499             -0.03392         *
 * Ni            148     -0.34390              0.05374              0.16124         *
 * Ni            149     -0.13644              0.01862             -0.00237         *
 * Ni            150     -0.09870             -0.13635              0.21321         *
 * Ni            151      0.84188              0.02928              0.19514         *
 * Ni            152      0.43086              0.22266              0.01305         *
 * Ni            153     -0.24399             -0.25938              0.12999         *
 * Ni            154     -0.02128             -0.19580             -0.05266         *
 * Ni            155      0.04801              0.30046             -0.07357         *
 * Ni            156      0.08975              0.18964              0.19532         *
 * Ni            157      0.25646             -0.13303              0.03885         *
 * Ni            158     -0.26642              0.27477             -0.06386         *
 * Ni            159     -0.06816              0.01086              0.10063         *
 * Ni            160     -0.00890             -0.06894             -0.00788         *
 * Ni            161      0.91021              0.36033              0.46093         *
 * Ni            162      0.35201             -0.10170             -0.03177         *
 * Ni            163      0.18165             -0.04398             -0.21974         *
 * Ni            164      0.00102              0.08655             -0.20714         *
 * Ni            165      0.33074              0.01059             -0.06184         *
 * Ni            166     -0.05131              0.09963             -0.06707         *
 * Ni            167     -0.12786             -0.07133              0.01546         *
 * Ni            168     -0.16161             -0.17137             -0.10337         *
 * Ni            169      0.45774              0.10393              0.01780         *
 * Ni            170      0.76422             -0.52603             -0.31683         *
 * Ni            171     -0.05538              0.00995              0.12660         *
 * Ni            172     -0.14115              0.17828             -0.05499         *
 * Ni            173      0.08744             -0.13142              0.11252         *
 * Ni            174     -0.01807             -0.10718             -0.13126         *
 * Ni            175     -0.08381             -0.08767             -0.14792         *
 * Ni            176      0.07514              0.21619             -0.05284         *
 * Ni            177      0.14104              0.23557              0.19399         *
 * Ni            178     -0.23657              0.09241             -0.01739         *
 * Ni            179      0.13175             -0.02389             -0.19953         *
 * Ni            180     -0.07766              0.02327             -0.10660         *
 * Ni            181      0.04956              0.03248             -0.18097         *
 *                                                                                  *
 ************************************************************************************
 LBFGS: finished iteration     0 with enthalpy= -2.57472099E+005 eV
  
 +-----------+-----------------+-----------------+------------+-----+ <-- LBFGS
 | Parameter |      value      |    tolerance    |    units   | OK? | <-- LBFGS
 +-----------+-----------------+-----------------+------------+-----+ <-- LBFGS
 |  dE/ion   |   0.000000E+000 |   2.000000E-005 |         eV | No  | <-- LBFGS
 |  |F|max   |   2.535001E+000 |   5.000000E-002 |       eV/A | No  | <-- LBFGS
 |  |dR|max  |   0.000000E+000 |   1.000000E-003 |          A | No  | <-- LBFGS
 +-----------+-----------------+-----------------+------------+-----+ <-- LBFGS
  

================================================================================
 Starting LBFGS iteration          1 ...
================================================================================
  
 +------------+-------------+-------------+-----------------+ <-- min LBFGS
 |    Step    |   lambda    |   F.delta'  |    enthalpy     | <-- min LBFGS
 +------------+-------------+-------------+-----------------+ <-- min LBFGS
 |  previous  |    0.000000 |    5.054298 |  -257472.099156 | <-- min LBFGS
 +------------+-------------+-------------+-----------------+ <-- min LBFGS
  

--------------------------------------------------------------------------------
 LBFGS: starting iteration         1 with trial guess (lambda=  1.000000)
--------------------------------------------------------------------------------
 
                           -------------------------------
                                     Cell Contents
                           -------------------------------
 
            xxxxxxxxxxxxxxxxxxxxxxxxxxxxxxxxxxxxxxxxxxxxxxxxxxxxxxxxxxxxxxxxx
            x  Element         Atom        Fractional coordinates of atoms  x
            x                 Number           u          v          w      x
            x---------------------------------------------------------------x
            x  Al                1         0.693851   0.937553   0.066524   x
            x  Al                2         0.941685   0.938535   0.064693   x
            x  Al                3         0.693545   0.189843   0.066210   x
            x  Al                4         0.941780   0.187777   0.064497   x
            x  Al                5         0.699551   0.439435   0.059646   x
            x  Al                6         0.943363   0.437818   0.063075   x
            x  Al                7         0.695075   0.686278   0.065261   x
            x  Al                8         0.943325   0.688463   0.063577   x
            x  Al                9         0.693044   0.936021   0.312086   x
            x  Al               10         0.941187   0.938314   0.313876   x
            x  Al               11         0.691758   0.192504   0.312153   x
            x  Al               12         0.941537   0.188144   0.314110   x
            x  Al               13         0.701565   0.440560   0.315044   x
            x  Al               14         0.943479   0.437909   0.314310   x
            x  Al               15         0.696253   0.683834   0.310306   x
            x  Al               16         0.943441   0.688044   0.313883   x
            x  Al               17         0.696235   0.936081   0.562267   x
            x  Al               18         0.940630   0.938974   0.563179   x
            x  Al               19         0.694023   0.189321   0.562866   x
            x  Al               20         0.940880   0.187211   0.563614   x
            x  Al               21         0.700942   0.438777   0.569659   x
            x  Al               22         0.943357   0.437325   0.565114   x
            x  Al               23         0.700963   0.686903   0.569656   x
            x  Al               24         0.943626   0.688638   0.564587   x
            x  Al               25         0.695636   0.938022   0.815944   x
            x  Al               26         0.941201   0.939098   0.814875   x
            x  Al               27         0.693277   0.188234   0.816148   x
            x  Al               28         0.941462   0.186977   0.814472   x
            x  Al               29         0.694779   0.437729   0.814262   x
            x  Al               30         0.943963   0.437137   0.814602   x
            x  Al               31         0.696272   0.687858   0.813945   x
            x  Al               32         0.943935   0.689077   0.814986   x
            x  Al               33         0.453265   0.811353   0.936463   x
            x  Al               34         0.180341   0.687194   0.808115   x
            x  Al               35         0.317320   0.819449   0.806435   x
            x  Al               36         0.067578   0.810072   0.056357   x
            x  Al               37         0.445599   0.564297   0.939408   x
            x  Al               38         0.316846   0.559056   0.804643   x
            x  Al               39         0.063932   0.323589   0.065501   x
            x  Al               40         0.441954   0.319770   0.943480   x
            x  Al               41         0.197628   0.316933   0.928927   x
            x  Al               42         0.062608   0.178488   0.933441   x
            x  Al               43         0.322633   0.817434   0.573135   x
            x  Al               44         0.196412   0.434873   0.561878   x
            x  Al               45         0.063729   0.434775   0.687646   x
            x  Al               46         0.448647   0.314064   0.688494   x
            x  Al               47         0.317523   0.297317   0.561368   x
            x  Al               48         0.055790   0.194417   0.689551   x
            x  Al               49         0.455435   0.057232   0.685618   x
            x  Al               50         0.451722   0.184841   0.820465   x
            x  Al               51         0.314997   0.062059   0.557266   x
            x  Al               52         0.187523   0.064197   0.689300   x
            x  Al               53         0.056111   0.932639   0.686934   x
            x  Al               54         0.441583   0.686864   0.313263   x
            x  Al               55         0.563831   0.684685   0.445482   x
            x  Al               56         0.310685   0.683517   0.185332   x
            x  Al               57         0.192591   0.814118   0.441962   x
            x  Al               58         0.066935   0.806565   0.309170   x
            x  Al               59         0.562941   0.440924   0.445919   x
            x  Al               60         0.200961   0.571886   0.442377   x
            x  Al               61         0.425455   0.439137   0.324418   x
            x  Al               62         0.069378   0.565134   0.314819   x
            x  Al               63         0.449316   0.196820   0.310086   x
            x  Al               64         0.073613   0.321196   0.316942   x
            x  Al               65         0.454401   0.057320   0.437987   x
            x  Al               66         0.309251   0.053321   0.312350   x
            x  Al               67         0.311719   0.815169   0.058404   x
            x  Al               68         0.559508   0.441903   0.187227   x
            x  Al               69         0.308339   0.440550   0.181658   x
            x  Al               70         0.067891   0.563055   0.056314   x
            x  Al               71         0.315598   0.055727   0.056334   x
            x  Al               72         0.316527   0.056518   0.823022   x
            x  Al               73         0.308540   0.195540   0.181549   x
            x  Al               74         0.072779   0.179634   0.181929   x
            x  Ni                1         0.691236   0.063728   0.189436   x
            x  Ni                2         0.817259   0.937683   0.189576   x
            x  Ni                3         0.817182   0.063619   0.065567   x
            x  Ni                4         0.941423   0.063626   0.189566   x
            x  Ni                5         0.691449   0.319351   0.188354   x
            x  Ni                6         0.816378   0.189752   0.189522   x
            x  Ni                7         0.818897   0.313099   0.063806   x
            x  Ni                8         0.943125   0.312736   0.188915   x
            x  Ni                9         0.692318   0.559356   0.188040   x
            x  Ni               10         0.820683   0.438648   0.187963   x
            x  Ni               11         0.820153   0.563446   0.062956   x
            x  Ni               12         0.944294   0.563084   0.188351   x
            x  Ni               13         0.691925   0.810893   0.188916   x
            x  Ni               14         0.819191   0.686688   0.188197   x
            x  Ni               15         0.817774   0.812561   0.064566   x
            x  Ni               16         0.942491   0.813018   0.188949   x
            x  Ni               17         0.573713   0.061830   0.561683   x
            x  Ni               18         0.815750   0.937175   0.437093   x
            x  Ni               19         0.815771   0.063953   0.313387   x
            x  Ni               20         0.940598   0.063299   0.438352   x
            x  Ni               21         0.691961   0.317618   0.439933   x
            x  Ni               22         0.815552   0.189079   0.437865   x
            x  Ni               23         0.818736   0.313841   0.314068   x
            x  Ni               24         0.942500   0.312550   0.439361   x
            x  Ni               25         0.692492   0.563213   0.441558   x
            x  Ni               26         0.819974   0.438998   0.440735   x
            x  Ni               27         0.821150   0.563320   0.314127   x
            x  Ni               28         0.944336   0.563171   0.439672   x
            x  Ni               29         0.692319   0.807344   0.438292   x
            x  Ni               30         0.818863   0.686767   0.439189   x
            x  Ni               31         0.817798   0.811374   0.313448   x
            x  Ni               32         0.942336   0.813219   0.438492   x
            x  Ni               33         0.692302   0.063287   0.688912   x
            x  Ni               34         0.817220   0.938742   0.689285   x
            x  Ni               35         0.815461   0.063296   0.562646   x
            x  Ni               36         0.940971   0.063173   0.688902   x
            x  Ni               37         0.692114   0.312700   0.690662   x
            x  Ni               38         0.816472   0.187498   0.689501   x
            x  Ni               39         0.818780   0.312302   0.564978   x
            x  Ni               40         0.942719   0.311501   0.689771   x
            x  Ni               41         0.694768   0.562571   0.691680   x
            x  Ni               42         0.820602   0.437273   0.691781   x
            x  Ni               43         0.821614   0.563105   0.566000   x
            x  Ni               44         0.944520   0.562952   0.690384   x
            x  Ni               45         0.695106   0.812599   0.690081   x
            x  Ni               46         0.821375   0.688380   0.691308   x
            x  Ni               47         0.819512   0.813076   0.563870   x
            x  Ni               48         0.942798   0.814546   0.689672   x
            x  Ni               49         0.691754   0.063628   0.942606   x
            x  Ni               50         0.816835   0.938215   0.940977   x
            x  Ni               51         0.816234   0.063401   0.815231   x
            x  Ni               52         0.941527   0.063147   0.939778   x
            x  Ni               53         0.692409   0.313909   0.939302   x
            x  Ni               54         0.817043   0.187962   0.940241   x
            x  Ni               55         0.818144   0.311803   0.814696   x
            x  Ni               56         0.942988   0.311848   0.938955   x
            x  Ni               57         0.693306   0.563546   0.937664   x
            x  Ni               58         0.820110   0.437904   0.937430   x
            x  Ni               59         0.820164   0.563156   0.814881   x
            x  Ni               60         0.944093   0.563387   0.938712   x
            x  Ni               61         0.692080   0.811633   0.940555   x
            x  Ni               62         0.818704   0.688381   0.939271   x
            x  Ni               63         0.818498   0.813805   0.815511   x
            x  Ni               64         0.942737   0.813966   0.939683   x
            x  Ni               65         0.062477   0.932390   0.185460   x
            x  Ni               66         0.065641   0.058130   0.060197   x
            x  Ni               67         0.193714   0.059355   0.183298   x
            x  Ni               68         0.315805   0.935296   0.185023   x
            x  Ni               69         0.188288   0.934316   0.059196   x
            x  Ni               70         0.435450   0.066071   0.189225   x
            x  Ni               71         0.566549   0.936155   0.189391   x
            x  Ni               72         0.440767   0.189677   0.064726   x
            x  Ni               73         0.444288   0.935122   0.064006   x
            x  Ni               74         0.187487   0.189901   0.055553   x
            x  Ni               75         0.186541   0.316071   0.185974   x
            x  Ni               76         0.436859   0.318846   0.187090   x
            x  Ni               77         0.567012   0.193162   0.187967   x
            x  Ni               78         0.567920   0.317336   0.064909   x
            x  Ni               79         0.312599   0.316173   0.059603   x
            x  Ni               80         0.067289   0.444320   0.189970   x
            x  Ni               81         0.188827   0.564733   0.186017   x
            x  Ni               82         0.440239   0.441765   0.062897   x
            x  Ni               83         0.313567   0.565909   0.057740   x
            x  Ni               84         0.436626   0.562295   0.188419   x
            x  Ni               85         0.566254   0.324706   0.314388   x
            x  Ni               86         0.568355   0.563343   0.063873   x
            x  Ni               87         0.063199   0.685651   0.183526   x
            x  Ni               88         0.063141   0.686242   0.935602   x
            x  Ni               89         0.189800   0.809817   0.184738   x
            x  Ni               90         0.440185   0.688802   0.062023   x
            x  Ni               91         0.190617   0.687905   0.056337   x
[...]
             Al 41 -- Ni 74                  0.16        2.59748
            Ni 164 -- Ni 165                 0.03        2.59750
             Al 43 -- Ni 124                 0.17        2.59774
            Ni 169 -- Ni 173                 0.06        2.59774
            Ni 70  -- Ni 77                  0.02        2.59782
             Al 18 -- Ni 96                  0.18        2.59798
            Ni 93  -- Ni 116                 0.09        2.59825
            Ni 131 -- Ni 159                -0.06        2.59855
             Al 44 -- Ni 128                 0.14        2.59899
            Ni 40  -- Ni 55                  0.01        2.59901
             Al 10 -- Ni 16                  0.20        2.59944
            Ni 18  -- Ni 29                  0.06        2.59948
            Ni 17  -- Ni 125                -0.02        2.59973
             Al 20 -- Ni 36                  0.20        2.59981
             Al 43 -- Ni 99                  0.18        2.59990
            Ni 128 -- Ni 129                 0.00        2.60012
             Al 40 -- Ni 168                 0.17        2.60035
             Al 40 -- Ni 164                 0.17        2.60059
             Al 72 -- Ni 130                 0.19        2.60066
             Al 55 -- Ni 122                 0.16        2.60075
            Ni 131 -- Ni 132                 0.02        2.60081
             Al 48 -- Ni 165                 0.17        2.60082
            Ni 161 -- Ni 173                 0.09        2.60086
             Al 19 -- Ni 21                  0.19        2.60101
            Ni 87  -- Ni 113                 0.05        2.60132
            Ni 159 -- Ni 168                -0.01        2.60137
            Ni 9   -- Ni 116                 0.00        2.60141
             Al 22 -- Ni 40                  0.19        2.60162
             Al 7  -- Ni 9                   0.18        2.60171
             Al 60 -- Ni 114                 0.22        2.60196
            Ni 81  -- Ni 114                -0.04        2.60199
            Ni 25  -- Ni 116                -0.00        2.60205
            Ni 40  -- Ni 170                -0.01        2.60235
            Ni 96  -- Ni 123                 0.12        2.60244
             Al 44 -- Ni 134                 0.19        2.60280
            Ni 4   -- Ni 66                 -0.03        2.60294
             Al 21 -- Ni 132                 0.15        2.60319
             Al 58 -- Ni 118                 0.15        2.60319
            Ni 98  -- Ni 106                 0.01        2.60337
             Al 64 -- Ni 80                  0.19        2.60419
             Al 18 -- Ni 36                  0.19        2.60426
            Ni 66  -- Ni 67                  0.07        2.60476
            Ni 28  -- Ni 43                  0.06        2.60494
            Ni 40  -- Ni 127                -0.03        2.60513
            Ni 19  -- Ni 20                  0.01        2.60534
            Ni 56  -- Ni 161                -0.00        2.60535
            Ni 115 -- Ni 140                 0.00        2.60573
            Ni 153 -- Ni 165                 0.00        2.60655
             Al 20 -- Ni 40                  0.21        2.60657
            Ni 125 -- Ni 159                -0.00        2.60657
             Al 67 -- Ni 92                  0.16        2.60663
             Al 15 -- Ni 30                  0.18        2.60687
             Al 22 -- Ni 112                 0.16        2.60699
            Ni 16  -- Ni 87                 -0.02        2.60734
            Ni 2   -- Ni 4                   0.05        2.60759
            Ni 3   -- Ni 52                  0.01        2.60766
            Ni 71  -- Ni 122                 0.09        2.60801
            Ni 17  -- Ni 111                -0.01        2.60809
             Al 14 -- Ni 8                   0.19        2.60843
            Ni 124 -- Ni 143                 0.09        2.60876
            Ni 90  -- Ni 180                 0.07        2.60889
            Ni 154 -- Ni 156                 0.01        2.60938
            Ni 88  -- Ni 171                 0.01        2.60948
            Ni 67  -- Ni 108                -0.04        2.60961
             Al 12 -- Ni 97                  0.17        2.60986
             Al 19 -- Ni 110                 0.18        2.61023
             Al 30 -- Ni 44                  0.18        2.61025
             Al 40 -- Ni 72                  0.15        2.61033
             Al 17 -- Ni 33                  0.17        2.61078
             Al 58 -- Ni 32                  0.17        2.61084
             Al 43 -- Ni 146                 0.15        2.61145
             Al 13 -- Ni 116                 0.16        2.61147
             Al 58 -- Ni 96                  0.14        2.61156
            Ni 17  -- Ni 101                -0.02        2.61184
            Ni 139 -- Ni 167                -0.02        2.61193
            Ni 89  -- Ni 91                 -0.03        2.61234
             Al 48 -- Ni 123                 0.14        2.61321
            Ni 165 -- Ni 170                 0.04        2.61325
             Al 34 -- Ni 145                 0.16        2.61337
             Al 34 -- Ni 95                  0.16        2.61338
             Al 21 -- Ni 140                 0.14        2.61370
            Ni 8   -- Ni 23                  0.07        2.61379
            Ni 140 -- Ni 141                 0.06        2.61383
            Ni 83  -- Ni 95                  0.10        2.61400
             Al 57 -- Ni 120                 0.16        2.61422
            Ni 86  -- Ni 90                  0.10        2.61425
            Ni 155 -- Ni 156                -0.02        2.61452
            Ni 113 -- Ni 119                -0.01        2.61453
             Al 40 -- Ni 176                 0.15        2.61495
             Al 51 -- Ni 126                 0.11        2.61509
            Ni 72  -- Ni 78                  0.11        2.61509
             Al 30 -- Ni 170                 0.16        2.61536
            Ni 79  -- Ni 172                 0.06        2.61570
            Ni 87  -- Ni 91                  0.06        2.61580
             Al 38 -- Ni 179                 0.15        2.61603
             Al 45 -- Ni 134                 0.18        2.61606
             Al 62 -- Ni 28                  0.16        2.61612
             Al 14 -- Ni 80                  0.15        2.61616
             Al 2  -- Ni 151                 0.16        2.61617
             Al 8  -- Ni 87                  0.15        2.61654
             Al 26 -- Ni 152                 0.16        2.61655
            Ni 20  -- Ni 22                  0.01        2.61665
             Al 32 -- Ni 48                  0.18        2.61681
             Al 23 -- Ni 149                 0.14        2.61693
             Al 30 -- Ni 40                  0.19        2.61717
            Ni 151 -- Ni 152                 0.13        2.61749
            Ni 88  -- Ni 177                 0.07        2.61775
            Ni 94  -- Ni 158                -0.00        2.61798
             Al 48 -- Al 52                  0.25        2.61805
            Ni 121 -- Ni 150                -0.00        2.61824
             Al 32 -- Ni 64                  0.18        2.61847
             Al 56 -- Ni 120                 0.14        2.61861
             Al 4  -- Ni 66                  0.15        2.61865
             Al 22 -- Ni 42                  0.18        2.61873
             Al 24 -- Ni 48                  0.18        2.61877
            Ni 154 -- Ni 157                -0.01        2.61887
            Ni 24  -- Ni 39                  0.05        2.61957
            Ni 158 -- Ni 181                -0.01        2.61960
            Ni 144 -- Ni 177                 0.03        2.62009
             Al 73 -- Ni 70                  0.16        2.62108
             Al 17 -- Ni 110                 0.17        2.62120
             Al 47 -- Ni 130                 0.15        2.62128
            Ni 99  -- Ni 100                 0.04        2.62131
            Ni 127 -- Ni 128                -0.02        2.62133
            Ni 75  -- Ni 108                -0.04        2.62296
            Ni 28  -- Ni 134                 0.03        2.62399
            Ni 98  -- Ni 99                 -0.01        2.62433
            Ni 90  -- Ni 95                  0.02        2.62450
             Al 26 -- Ni 36                  0.18        2.62492
             Al 54 -- Al 55                  0.28        2.62496
             Al 23 -- Ni 140                 0.13        2.62503
             Al 37 -- Ni 95                  0.17        2.62519
             Al 67 -- Ni 95                  0.17        2.62580
            Ni 22  -- Ni 24                  0.01        2.62612
             Al 18 -- Ni 123                 0.14        2.62625
            Ni 75  -- Ni 162                -0.00        2.62628
             Al 42 -- Ni 56                  0.16        2.62633
            Ni 74  -- Ni 75                 -0.02        2.62644
            Ni 136 -- Ni 176                 0.03        2.62660
             Al 43 -- Ni 121                 0.17        2.62673
             Al 60 -- Ni 134                 0.16        2.62689
            Ni 142 -- Ni 169                 0.01        2.62702
            Ni 81  -- Ni 113                 0.01        2.62746
            Ni 127 -- Ni 129                 0.08        2.62781
            Ni 70  -- Ni 71                  0.08        2.62793
            Ni 164 -- Ni 173                 0.05        2.62797
            Ni 117 -- Ni 119                 0.03        2.62822
            Ni 81  -- Ni 91                 -0.02        2.62833
            Ni 75  -- Ni 114                -0.02        2.62856
             Al 44 -- Ni 135                 0.13        2.62878
            Ni 88  -- Ni 169                 0.07        2.62880
             Al 24 -- Ni 44                  0.19        2.62899
            Ni 170 -- Ni 173                 0.07        2.62921
             Al 44 -- Al 60                  0.33        2.62937
             Al 65 -- Ni 106                 0.14        2.62949
             Al 24 -- Ni 32                  0.18        2.62970
             Al 47 -- Ni 141                 0.20        2.62978
             Al 52 -- Al 53                  0.24        2.62995
             Al 61 -- Ni 85                  0.15        2.63012
            Ni 132 -- Ni 141                -0.01        2.63082
             Al 60 -- Ni 112                 0.20        2.63261
             Al 56 -- Ni 92                  0.13        2.63313
             Al 10 -- Ni 96                  0.16        2.63346
             Al 32 -- Ni 44                  0.17        2.63508
             Al 11 -- Ni 85                  0.17        2.63526
             Al 38 -- Ni 95                  0.16        2.63552
            Ni 52  -- Ni 152                 0.02        2.63585
             Al 10 -- Ni 65                  0.14        2.63621
            Ni 152 -- Ni 165                 0.04        2.63657
             Al 9  -- Ni 29                  0.17        2.63669
            Ni 135 -- Ni 136                 0.05        2.63702
             Al 16 -- Ni 118                 0.14        2.63764
             Al 28 -- Ni 170                 0.13        2.63874
             Al 20 -- Ni 123                 0.14        2.63900
             Al 35 -- Ni 178                 0.16        2.63917
            Ni 164 -- Ni 172                 0.01        2.63954
             Al 74 -- Ni 8                   0.18        2.63994
             Al 15 -- Ni 116                 0.17        2.64000
            Ni 118 -- Ni 134                 0.09        2.64125
             Al 33 -- Ni 95                  0.15        2.64127
            Ni 105 -- Ni 112                 0.03        2.64136
            Ni 105 -- Ni 106                 0.09        2.64225
            Ni 152 -- Ni 153                 0.06        2.64225
             Al 56 -- Al 67                  0.24        2.64273
            Ni 7   -- Ni 8                   0.05        2.64338
             Al 59 -- Al 61                  0.29        2.64392
            Ni 75  -- Ni 79                  0.04        2.64415
            Ni 142 -- Ni 177                 0.01        2.64460
            Ni 139 -- Ni 141                 0.05        2.64467
             Al 54 -- Al 56                  0.24        2.64485
            Ni 145 -- Ni 147                 0.00        2.64526
             Al 51 -- Al 52                  0.22        2.64544
             Al 35 -- Ni 179                 0.12        2.64557
             Al 60 -- Al 62                  0.22        2.64674
            Ni 118 -- Ni 146                 0.06        2.64871
            Ni 102 -- Ni 111                -0.05        2.65050
            Ni 56  -- Ni 58                  0.04        2.65059
             Al 57 -- Al 58                  0.24        2.65238
             Al 55 -- Ni 116                 0.16        2.65264
             Al 36 -- Ni 16                  0.14        2.65308
             Al 51 -- Al 65                  0.25        2.65329
            Ni 67  -- Ni 74                  0.02        2.65402
            Ni 24  -- Ni 112                 0.02        2.65427
             Al 41 -- Ni 161                 0.16        2.65569
            Ni 153 -- Ni 154                 0.05        2.65606
             Al 46 -- Ni 133                 0.16        2.65803
            Ni 128 -- Ni 170                 0.02        2.65898
             Al 40 -- Al 50                  0.24        2.65929
             Al 61 -- Al 69                  0.27        2.65958
             Al 28 -- Ni 152                 0.12        2.66082
            Ni 70  -- Ni 73                  0.09        2.66157
            Ni 85  -- Ni 111                 0.05        2.66204
             Al 20 -- Ni 127                 0.16        2.66322
             Al 65 -- Ni 99                  0.14        2.66361
             Al 46 -- Al 47                  0.22        2.66381
             Al 44 -- Al 47                  0.29        2.66450
             Al 6  -- Ni 8                   0.16        2.66523
            Ni 55  -- Ni 56                  0.05        2.66595
             Al 6  -- Ni 80                  0.14        2.66633
             Al 53 -- Ni 36                  0.14        2.66699
             Al 6  -- Al 39                  0.22        2.66800
             Al 23 -- Al 55                  0.23        2.66920
            Ni 67  -- Ni 97                  0.05        2.66933
             Al 61 -- Ni 116                 0.13        2.66973
            Ni 101 -- Ni 102                -0.00        2.67093
             Al 70 -- Ni 12                  0.13        2.67151
             Al 21 -- Al 59                  0.24        2.67302
            Ni 80  -- Ni 162                 0.03        2.67373
            Ni 153 -- Ni 163                 0.00        2.67400
            Ni 147 -- Ni 155                 0.03        2.67403
             Al 69 -- Ni 117                 0.13        2.67522
             Al 47 -- Ni 136                 0.18        2.67532
             Al 6  -- Ni 161                 0.13        2.67552
             Al 44 -- Al 45                  0.21        2.68167
             Al 64 -- Ni 8                   0.16        2.68189
             Al 52 -- Al 72                  0.20        2.68288
            Ni 106 -- Ni 129                 0.04        2.68593
             Al 16 -- Al 58                  0.23        2.68711
             Al 30 -- Al 45                  0.23        2.68878
             Al 16 -- Ni 87                  0.11        2.69036
             Al 69 -- Ni 107                 0.13        2.69097
             Al 71 -- Ni 74                  0.15        2.69327
             Al 18 -- Al 53                  0.22        2.69703
             Al 43 -- Al 57                  0.24        2.69819
             Al 5  -- Al 68                  0.21        2.69896
             Al 50 -- Al 72                  0.19        2.69941
            Ni 8   -- Ni 10                  0.02        2.70016
             Al 14 -- Ni 112                 0.14        2.70086
             Al 10 -- Al 58                  0.21        2.70241
             Al 61 -- Ni 76                  0.08        2.70461
            Ni 77  -- Ni 85                  0.04        2.70563
             Al 28 -- Al 42                  0.21        2.70624
             Al 48 -- Ni 36                  0.12        2.70803
            Ni 80  -- Ni 114                 0.02        2.70913
             Al 20 -- Al 48                  0.22        2.71144
             Al 33 -- Al 67                  0.20        2.71511
             Al 49 -- Al 50                  0.20        2.71980
             Al 26 -- Al 53                  0.21        2.72168
            Ni 128 -- Ni 130                 0.10        2.72411
             Al 37 -- Al 38                  0.21        2.72499
             Al 16 -- Al 62                  0.21        2.72499
            Ni 129 -- Ni 130                 0.01        2.72543
             Al 46 -- Al 50                  0.19        2.72646
             Al 28 -- Al 48                  0.21        2.72676
             Al 14 -- Al 62                  0.21        2.73060
             Al 61 -- Ni 84                  0.07        2.73155
             Al 22 -- Al 45                  0.21        2.73401
            Ni 144 -- Ni 155                 0.02        2.73582
             Al 46 -- Ni 130                 0.13        2.73985
             Al 39 -- Al 41                  0.17        2.73994
             Al 39 -- Al 74                  0.19        2.74375
             Al 14 -- Al 64                  0.20        2.74418
             Al 71 -- Al 73                  0.19        2.74801
             Al 15 -- Al 55                  0.21        2.74916
             Al 34 -- Al 35                  0.18        2.75226
             Al 2  -- Al 36                  0.20        2.75236
             Al 33 -- Al 35                  0.19        2.75401
             Al 49 -- Al 51                  0.17        2.75429
             Al 6  -- Al 70                  0.20        2.75676
             Al 34 -- Al 38                  0.19        2.75729
             Al 63 -- Al 65                  0.18        2.75796
             Al 8  -- Al 36                  0.19        2.76160
             Al 13 -- Al 68                  0.18        2.76385
             Al 13 -- Al 59                  0.19        2.76554
             Al 63 -- Al 73                  0.17        2.76970
             Al 8  -- Al 70                  0.19        2.77528
             Al 41 -- Al 42                  0.18        2.77957
             Al 64 -- Al 74                  0.17        2.78836
             Al 65 -- Al 66                  0.17        2.79447
             Al 39 -- Al 42                  0.19        2.80515
             Al 4  -- Al 74                  0.15        2.80824
             Al 12 -- Al 74                  0.15        2.80864
             Al 66 -- Al 73                  0.15        2.81010
             Al 4  -- Al 42                  0.15        2.82070
             Al 12 -- Al 64                  0.14        2.85300
             Al 61 -- Al 68                  0.14        2.85624
             Al 4  -- Al 39                  0.11        2.87836
             Al 49 -- Al 72                  0.11        2.87909
             Al 63 -- Al 66                  0.10        2.93097
======================================================================
 

Writing analysis data to castep.castep_bin

Writing model to castep.check
 
 A BibTeX formatted list of references used in this run has been written to 
 castep.bib
 
Initialisation time =     26.34 s
Calculation time    =  13866.54 s
Finalisation time   =      5.84 s
Total time          =  13898.72 s
Peak Memory Use     = 3943172 kB
 
Overall parallel efficiency rating: Satisfactory (65%)
 
Data was distributed by:-
G-vector (128-way); efficiency rating: Satisfactory (67%)
