 +-------------------------------------------------+
 |                                                 |
 |      CCC   AA    SSS  TTTTT  EEEEE  PPPP        |
 |     C     A  A  S       T    E      P   P       |
 |     C     AAAA   SS     T    EEE    PPPP        |
 |     C     A  A     S    T    E      P           |
 |      CCC  A  A  SSS     T    EEEEE  P           |
 |                                                 |
 +-------------------------------------------------+
 |                                                 |
 | Welcome to Academic Release CASTEP version 22.11|
 | Ab Initio Total Energy Program                  |
 |                                                 |
 | Authors:                                        |
 | M. Segall, M. Probert, C. Pickard, P. Hasnip,   |
 | S. Clark, K. Refson, J. R. Yates, M. Payne      |
 |                                                 |
 | Contributors:                                   |
 | P. Lindan, P. Haynes, J. White, V. Milman,      |
 | N. Govind, M. Gibson, P. Tulip, V. Cocula,      |
 | B. Montanari, D. Quigley, M. Glover,            |
 | L. Bernasconi, A. Perlov, M. Plummer,           |
 | E. McNellis, J. Meyer, J. Gale, D. Jochym       |
 | J. Aarons, B. Walker, R. Gillen, D. Jones       |
 | T. Green, I. J. Bush, C. J. Armstrong,          |
 | E. J. Higgins, E. L. Brown, M. S. McFly,        |
 | J. Wilkins, B-C. Shih, P. J. P. Byrne,          |
 | R. J. Maurer, J. C. Womack, J. Dziedzic,        |
 | A. Bartok-Partay, L. LeBlanc, T. K. Stenczel,   |
 | J. Kermode, S. Sturniolo, B. Shi, B. Durham     |
 | M. Evans, M. J. Smith                           |
 |                                                 |
 | Copyright (c) 2000 - 2021                       |
 |                                                 |
 |     Distributed under license from Cambridge    |
 |     Enterprise for academic use only.           |
 |                                                 |
 | Please cite                                     |
 |                                                 |
 |     "First principles methods using CASTEP"     |
 |                                                 |
 |         Zeitschrift fuer Kristallographie       |
 |           220(5-6) pp. 567-570 (2005)           |
 |                                                 |
 | S. J. Clark, M. D. Segall, C. J. Pickard,       |
 | P. J. Hasnip, M. J. Probert, K. Refson,         |
 | M. C. Payne                                     |
 |                                                 |
 |       in all publications arising from          |
 |              your use of CASTEP                 |
 |                                                 |
 +-------------------------------------------------+
 |                                                 |
 |              http://www.castep.org              |
 |                                                 |
 +-------------------------------------------------+
 
 
 
 Compiled for linux_x86_64_ifort on Wed, 18 Jan 2023 15:42:19 +0000
 from code version b807d1bba+  Castep221_branch  Wed Sep 14 11:18:35 2022 +0100
 Compiler: Intel Fortran 19.0.5.281; Optimisation: fast
 MATHLIBS: Intel MKL(2019.0.5) (LAPACK version 3.7.0)
 FFT Lib : mkl
 Fundamental constants values: CODATA 2014
 
 Run started: Thu, 27 Apr 2023 01:23:34 +0100
 
 Atomic calculation performed for Al: 1s2 2s2 2p6 3s2 3p1
 
 Converged in 52 iterations to an ae energy of -6606.982 eV
 
   ============================================================                
   | Pseudopotential Report - Date of generation 27-04-2023   |                
   ------------------------------------------------------------                
   | Element: Al Ionic charge:  3.00 Level of theory: RPBE    |                
   | Atomic Solver: Koelling-Harmon                           |                
   |                                                          |                
   |               Reference Electronic Structure             |                
   |         Orbital         Occupation         Energy        |                
   |            3s              2.000           -0.284        |                
   |            3p              1.000           -0.100        |                
   |                                                          |                
   |                 Pseudopotential Definition               |                
   |        Beta     l      e      Rc     scheme   norm       |                
   |          1      0   -0.284   2.192     qc      0         |                
   |          2      0    0.250   2.192     qc      0         |                
   |          3      1   -0.100   2.192     qc      0         |                
   |          4      1    0.250   2.192     qc      0         |                
   |          5      2    0.000   2.000     qc      0         |                
   |          6      2    0.250   2.000     qc      0         |                
   |         loc     3    0.000   2.192     pn      0         |                
   |                                                          |                
   | Augmentation charge Rinner = 1.398                       |                
   | Partial core correction Rc = 1.398                       |                
   ------------------------------------------------------------                
   | "3|2.2|2.2|1.4|4|5|5|30:31:32U2U2"                       |                
   ------------------------------------------------------------                
   |      Author: Chris J. Pickard, Cambridge University      |                
   ============================================================                
 
 Atomic calculation performed for Ni: 1s2 2s2 2p6 3s2 3p6 3d8 4s2
 
 Converged in 109 iterations to an ae energy of -41381.414 eV
 
   ============================================================                
   | Pseudopotential Report - Date of generation 27-04-2023   |                
   ------------------------------------------------------------                
   | Element: Ni Ionic charge: 10.00 Level of theory: RPBE    |                
   | Atomic Solver: Koelling-Harmon                           |                
   |                                                          |                
   |               Reference Electronic Structure             |                
   |         Orbital         Occupation         Energy        |                
   |            3d              8.000           -0.324        |                
   |            4s              2.000           -0.204        |                
   |                                                          |                
   |                 Pseudopotential Definition               |                
   |        Beta     l      e      Rc     scheme   norm       |                
   |          1      0   -0.204   2.401     qc      0         |                
   |          2      0    0.250   2.401     qc      0         |                
   |          3      1    0.000   2.401     qc      0         |                
   |          4      1    0.250   2.401     qc      0         |                
   |          5      2   -0.324   1.999     qc      0         |                
   |          6      2    0.250   1.999     qc      0         |                
   |         loc     3    0.000   2.401     pn      0         |                
   |                                                          |                
   | Augmentation charge Rinner = 1.001                       |                
   | Partial core correction Rc = 1.001                       |                
   ------------------------------------------------------------                
   | "3|2.4|2.4|1.0|8|9|10|40:41:32U2U2(qc=5.5)"              |                
   ------------------------------------------------------------                
   |      Author: Chris J. Pickard, Cambridge University      |                
   ============================================================                
 
 Pseudo atomic calculation performed for Al 3s2 3p1
 
 Converged in 13 iterations to a total energy of -107.6593 eV
 
 Pseudo atomic calculation performed for Ni 3d8 4s2
 
 Converged in 41 iterations to a total energy of -1369.7890 eV
 Calculation parallelised over 128 processes.
 Data is distributed by G-vector(128-way)

 ************************************ Title ************************************
 

 ***************************** General Parameters ******************************
  
 output verbosity                               : normal  (1)
 write checkpoint data to                       : castep.check
 type of calculation                            : geometry optimization
 stress calculation                             : off
 density difference calculation                 : off
 electron localisation func (ELF) calculation   : off
 Hirshfeld analysis                             : off
 polarisation (Berry phase) analysis            : off
 molecular orbital projected DOS                : off
 deltaSCF calculation                           : off
 unlimited duration calculation
 timing information                             : on
 memory usage estimate                          : on
 write extra output files                       : on
 write final potential to formatted file        : off
 write final density to formatted file          : off
 write BibTeX reference list                    : on
 write OTFG pseudopotential files               : on
 write electrostatic potential file             : on
 write bands file                               : on
 checkpoint writing                             : both castep_bin and check files
  
 output         length unit                     : A
 output           mass unit                     : amu
 output           time unit                     : ps
 output         charge unit                     : e
 output           spin unit                     : hbar/2
 output         energy unit                     : eV
 output          force unit                     : eV/A
 output       velocity unit                     : A/ps
 output       pressure unit                     : GPa
 output     inv_length unit                     : 1/A
 output      frequency unit                     : cm-1
 output force constant unit                     : eV/A**2
 output         volume unit                     : A**3
 output   IR intensity unit                     : (D/A)**2/amu
 output         dipole unit                     : D
 output         efield unit                     : eV/A/e
 output        entropy unit                     : J/mol/K
 output    efield chi2 unit                     : pm/V
  
 wavefunctions paging                           : none
 random number generator seed                   : randomised (12336161)
 data distribution                              : optimal for this architecture
 optimization strategy                          : maximize speed(+++)

 *********************** Exchange-Correlation Parameters ***********************
  
 using functional                               : revised Perdew Burke Ernzerhof
 relativistic treatment                         : Koelling-Harmon
 DFT+D: Semi-empirical dispersion correction    : off

 ************************* Pseudopotential Parameters **************************
  
 pseudopotential representation                 : reciprocal space
 <beta|phi> representation                      : reciprocal space
 spin-orbit coupling                            : off

 **************************** Basis Set Parameters *****************************
  
 plane wave basis set cut-off                   :   900.0000   eV
 size of standard grid                          :     1.7500
 size of   fine   gmax                          :    26.8966   1/A
 finite basis set correction                    : none

 **************************** Electronic Parameters ****************************
  
 number of  electrons                           :  2046.    
 net charge of system                           :  0.000    
 treating system as non-spin-polarized
 number of bands                                :       1135

 ********************* Electronic Minimization Parameters **********************
  
 Method: Treating system as metallic with density mixing treatment of electrons,
         and number of  SD  steps               :          1
         and number of  CG  steps               :          4
  
 total energy / atom convergence tol.           : 0.1000E-05   eV
 eigen-energy convergence tolerance             : 0.2247E-06   eV
 max force / atom convergence tol.              : ignored
 convergence tolerance window                   :          3   cycles
 max. number of SCF cycles                      :        200
 number of fixed-spin iterations                :         10
 smearing scheme                                : Gaussian
 smearing width                                 : 0.2000       eV
 Fermi energy convergence tolerance             : 0.2721E-13   eV
 periodic dipole correction                     : NONE
 periodically dump wavefunctions to             : castep.wvfn
 dump wavefunctions every                       :          1   SCF cycles

 ************************** Density Mixing Parameters **************************
  
 density-mixing scheme                          : Pulay
 max. length of mixing history                  :         20
 charge density mixing amplitude                : 0.8000    
 cut-off energy for mixing                      :  900.0       eV

 *********************** Population Analysis Parameters ************************
  
 Population analysis with cutoff                :  3.000       A
 Population analysis output                     : summary and pdos components

 ********************** Geometry Optimization Parameters ***********************
  
 optimization method                            : LBFGS
 max. no. of LBFGS updates                      : unbounded
 variable cell method                           : fixed basis quality
 max. number of steps                           :         30
 estimated bulk modulus                         :  500.0       GPa
 estimated <frequency>                          :  1668.       cm-1
 geom line minimiser                            : on
 with line minimiser tolerance                  :     0.4000
 total energy convergence tolerance             : 0.2000E-04   eV/atom
        max ionic |force| tolerance             : 0.5000E-01   eV/A
 max ionic |displacement| tolerance             : 0.1000E-02   A
   max |stress component| tolerance             : 0.1000       GPa
 convergence tolerance window                   :          2   steps
 backup results every                           :          5   steps
 write geom trajectory file                     : on

 *******************************************************************************
  
 
                           -------------------------------
                                      Unit Cell
                           -------------------------------
        Real Lattice(A)                      Reciprocal Lattice(1/A)
    14.4648280     0.0000000     0.0000000        0.434376773   0.000000000   0.000000000
     0.0000000    14.4648280     0.0000000        0.000000000   0.434376773   0.000000000
     0.0000000     0.0000000    14.4648280        0.000000000   0.000000000   0.434376773
 
                       Lattice parameters(A)       Cell Angles
                    a =     14.464828          alpha =   90.000000
                    b =     14.464828          beta  =   90.000000
                    c =     14.464828          gamma =   90.000000
 
                       Current cell volume =          3026.494030       A**3
                                   density =             4.190844   AMU/A**3
                                           =             6.959059     g/cm^3
 
                           -------------------------------
                                     Cell Contents
                           -------------------------------
                         Total number of ions in cell =  255
                      Total number of species in cell =    2
                        Max number of any one species =  183
 
            xxxxxxxxxxxxxxxxxxxxxxxxxxxxxxxxxxxxxxxxxxxxxxxxxxxxxxxxxxxx
            x  Element    Atom        Fractional coordinates of atoms  x
            x            Number           u          v          w      x
            x----------------------------------------------------------x
            x  Al           1         0.943168   0.061969   0.691677   x 
            x  Al           2         0.942193   0.313810   0.691533   x 
            x  Al           3         0.946981   0.563354   0.685675   x 
            x  Al           4         0.943691   0.811380   0.690563   x 
            x  Al           5         0.941781   0.060004   0.939870   x 
            x  Al           6         0.941451   0.314585   0.939902   x 
            x  Al           7         0.948818   0.564941   0.941492   x 
            x  Al           8         0.945390   0.810383   0.936950   x 
            x  Al           9         0.943996   0.061236   0.189226   x 
            x  Al          10         0.942481   0.313403   0.187842   x 
            x  Al          11         0.945991   0.562551   0.193928   x 
            x  Al          12         0.948423   0.811602   0.196129   x 
            x  Al          13         0.944978   0.062455   0.440557   x 
            x  Al          14         0.943272   0.312521   0.441442   x 
            x  Al          15         0.943632   0.562167   0.440176   x 
            x  Al          16         0.944329   0.812412   0.439465   x 
            x  Al          17         0.700611   0.938527   0.561499   x 
            x  Al          18         0.428026   0.811051   0.437544   x 
            x  Al          19         0.563498   0.944762   0.435424   x 
            x  Al          20         0.175763   0.929850   0.808641   x 
            x  Al          21         0.193744   0.811181   0.439428   x 
            x  Al          22         0.171235   0.569927   0.439846   x 
            x  Al          23         0.314954   0.933634   0.682904   x 
            x  Al          24         0.053315   0.818767   0.563132   x 
            x  Al          25         0.694639   0.687821   0.566426   x 
            x  Al          26         0.564986   0.683522   0.433311   x 
            x  Al          27         0.311833   0.446904   0.692673   x 
            x  Al          28         0.174482   0.434380   0.565155   x 
            x  Al          29         0.699166   0.183671   0.563717   x 
            x  Al          30         0.446712   0.437312   0.558756   x 
            x  Al          31         0.310888   0.189953   0.451847   x 
            x  Al          32         0.569413   0.941436   0.199971   x 
            x  Al          33         0.061185   0.810659   0.307959   x 
            x  Al          34         0.436922   0.563597   0.194458   x 
            x  Al          35         0.308918   0.558839   0.321291   x 
            x  Al          36         0.696969   0.432558   0.322165   x 
            x  Al          37         0.564961   0.430367   0.197155   x 
            x  Al          38         0.309290   0.320260   0.312756   x 
            x  Al          39         0.071885   0.440380   0.189138   x 
            x  Al          40         0.700494   0.187674   0.315984   x 
            x  Al          41         0.689950   0.439889   0.559403   x 
            x  Al          42         0.557039   0.314317   0.057593   x 
            x  Al          43         0.554054   0.182829   0.193404   x 
            x  Al          44         0.309244   0.058919   0.311553   x 
            x  Al          45         0.064773   0.188498   0.201865   x 
            x  Al          46         0.690173   0.813934   0.938833   x 
            x  Al          47         0.811738   0.811373   0.072687   x 
            x  Al          48         0.559246   0.807802   0.810642   x 
            x  Al          49         0.440192   0.935796   0.066993   x 
            x  Al          50         0.313721   0.929045   0.934279   x 
            x  Al          51         0.804519   0.563717   0.065708   x 
            x  Al          52         0.442688   0.700231   0.068790   x 
            x  Al          53         0.572660   0.563602   0.059847   x 
            x  Al          54         0.314024   0.690985   0.939124   x 
            x  Al          55         0.696935   0.317128   0.929989   x 
            x  Al          56         0.188723   0.308075   0.937602   x 
            x  Al          57         0.319729   0.447785   0.942365   x 
            x  Al          58         0.057224   0.311188   0.060848   x 
            x  Al          59         0.697513   0.179473   0.065211   x 
            x  Al          60         0.556135   0.175897   0.931260   x 
            x  Al          61         0.189223   0.069326   0.936276   x 
            x  Al          62         0.061422   0.062729   0.066565   x 
            x  Al          63         0.559357   0.940764   0.682838   x 
            x  Al          64         0.807448   0.566905   0.815166   x 
            x  Al          65         0.563890   0.566110   0.813373   x 
            x  Al          66         0.315667   0.683288   0.679484   x 
            x  Al          67         0.181291   0.688287   0.816325   x 
            x  Al          68         0.052461   0.682983   0.689841   x 
            x  Al          69         0.556865   0.181513   0.692474   x 
            x  Al          70         0.554711   0.187751   0.440547   x 
            x  Al          71         0.695167   0.315148   0.700017   x 
            x  Al          72         0.319153   0.305967   0.809659   x 
            x  Ni           1         0.940521   0.186370   0.816140   x 
            x  Ni           2         0.940367   0.443744   0.814383   x 
            x  Ni           3         0.940566   0.684566   0.813756   x 
            x  Ni           4         0.941071   0.935951   0.814847   x 
            x  Ni           5         0.818700   0.186850   0.188510   x 
            x  Ni           6         0.938537   0.441330   0.066254   x 
            x  Ni           7         0.939054   0.687336   0.067679   x 
            x  Ni           8         0.940286   0.933000   0.065942   x 
            x  Ni           9         0.940806   0.187934   0.314107   x 
            x  Ni          10         0.940141   0.436760   0.315473   x 
            x  Ni          11         0.942136   0.686538   0.317245   x 
            x  Ni          12         0.942777   0.937780   0.315947   x 
            x  Ni          13         0.939973   0.188402   0.567131   x 
            x  Ni          14         0.940867   0.437308   0.564835   x 
            x  Ni          15         0.941291   0.688025   0.563578   x 
            x  Ni          16         0.940756   0.936427   0.565480   x 
            x  Ni          17         0.061935   0.062555   0.815121   x 
            x  Ni          18         0.062125   0.185919   0.690636   x 
            x  Ni          19         0.189190   0.187140   0.810992   x 
            x  Ni          20         0.308755   0.055904   0.811334   x 
            x  Ni          21         0.313322   0.186779   0.684957   x 
            x  Ni          22         0.185924   0.059490   0.689361   x 
            x  Ni          23         0.435488   0.182298   0.811374   x 
            x  Ni          24         0.562351   0.056786   0.811329   x 
            x  Ni          25         0.434783   0.059151   0.686233   x 
            x  Ni          26         0.688012   0.185187   0.814340   x 
            x  Ni          27         0.816224   0.059097   0.815643   x 
            x  Ni          28         0.688181   0.441195   0.812912   x 
            x  Ni          29         0.691543   0.061040   0.688943   x 
            x  Ni          30         0.062885   0.311608   0.816956   x 
            x  Ni          31         0.062393   0.438275   0.694809   x 
            x  Ni          32         0.192021   0.437349   0.817769   x 
            x  Ni          33         0.438667   0.315853   0.688605   x 
            x  Ni          34         0.187912   0.314262   0.692236   x 
            x  Ni          35         0.437335   0.441874   0.812875   x 
            x  Ni          36         0.688762   0.564587   0.937505   x 
            x  Ni          37         0.820274   0.315472   0.815512   x 
            x  Ni          38         0.816581   0.441127   0.689736   x 
            x  Ni          39         0.564873   0.438048   0.688119   x 
            x  Ni          40         0.061167   0.562479   0.817547   x 
            x  Ni          41         0.313202   0.569386   0.814542   x 
            x  Ni          42         0.184830   0.564853   0.688882   x 
            x  Ni          43         0.438000   0.687798   0.810773   x 
            x  Ni          44         0.690008   0.562885   0.687771   x 
            x  Ni          45         0.563248   0.688497   0.684141   x 
            x  Ni          46         0.687190   0.690711   0.811536   x 
            x  Ni          47         0.817188   0.443233   0.939760   x 
            x  Ni          48         0.817059   0.687482   0.689340   x 
            x  Ni          49         0.056778   0.809903   0.813488   x 
            x  Ni          50         0.057796   0.937173   0.688080   x 
            x  Ni          51         0.182454   0.807650   0.686158   x 
            x  Ni          52         0.310394   0.808009   0.807458   x 
            x  Ni          53         0.181121   0.687608   0.565599   x 
            x  Ni          54         0.310932   0.810519   0.563348   x 
            x  Ni          55         0.436851   0.932779   0.810133   x 
            x  Ni          56         0.688645   0.815046   0.686298   x 
            x  Ni          57         0.438912   0.810850   0.682378   x 
            x  Ni          58         0.687187   0.933726   0.811845   x 
            x  Ni          59         0.815449   0.810272   0.814744   x 
            x  Ni          60         0.817265   0.936195   0.690709   x 
            x  Ni          61         0.565596   0.813542   0.556329   x 
            x  Ni          62         0.061702   0.186688   0.939743   x 
            x  Ni          63         0.185500   0.187669   0.065240   x 
            x  Ni          64         0.311380   0.060199   0.062982   x 
            x  Ni          65         0.314650   0.185960   0.937863   x 
            x  Ni          66         0.438734   0.184601   0.062580   x 
            x  Ni          67         0.564151   0.060758   0.065719   x 
            x  Ni          68         0.433813   0.055238   0.938404   x 
            x  Ni          69         0.818734   0.058346   0.064463   x 
            x  Ni          70         0.815369   0.186056   0.938303   x 
            x  Ni          71         0.691153   0.059354   0.938122   x 
            x  Ni          72         0.063633   0.437342   0.939719   x 
            x  Ni          73         0.189047   0.437762   0.060608   x 
            x  Ni          74         0.313843   0.314052   0.062422   x 
            x  Ni          75         0.442075   0.442350   0.067643   x 
            x  Ni          76         0.435672   0.312749   0.937026   x 
            x  Ni          77         0.561666   0.438511   0.936636   x 
            x  Ni          78         0.561950   0.311273   0.815347   x 
            x  Ni          79         0.685997   0.433303   0.064075   x 
            x  Ni          80         0.939100   0.187226   0.063493   x 
            x  Ni          81         0.814633   0.313609   0.061850   x 
            x  Ni          82         0.062472   0.563249   0.065214   x 
            x  Ni          83         0.061434   0.687681   0.941252   x 
            x  Ni          84         0.188430   0.689954   0.063176   x 
            x  Ni          85         0.316813   0.567892   0.066017   x 
            x  Ni          86         0.188840   0.565086   0.940796   x 
            x  Ni          87         0.438965   0.813246   0.938994   x 
            x  Ni          88         0.441868   0.569715   0.942407   x 
            x  Ni          89         0.687756   0.690791   0.067545   x 
            x  Ni          90         0.815853   0.688871   0.941828   x 
            x  Ni          91         0.563783   0.691906   0.939638   x 
            x  Ni          92         0.060783   0.814611   0.065163   x 
            x  Ni          93         0.061934   0.938973   0.940948   x 
            x  Ni          94         0.187341   0.938518   0.061297   x 
            x  Ni          95         0.312832   0.813844   0.065880   x 
            x  Ni          96         0.185847   0.812447   0.938129   x 
            x  Ni          97         0.567677   0.817290   0.068010   x 
            x  Ni          98         0.563011   0.936499   0.937628   x 
            x  Ni          99         0.689410   0.938452   0.067220   x 
            x  Ni         100         0.815632   0.932775   0.940565   x 
            x  Ni         101         0.063612   0.060642   0.315145   x 
            x  Ni         102         0.193678   0.188775   0.318058   x 
            x  Ni         103         0.188038   0.061713   0.440055   x 
            x  Ni         104         0.312891   0.188298   0.188571   x 
            x  Ni         105         0.186882   0.062793   0.188899   x 
            x  Ni         106         0.435787   0.059520   0.190049   x 
            x  Ni         107         0.820546   0.062034   0.314785   x 
            x  Ni         108         0.692312   0.064588   0.192312   x 
            x  Ni         109         0.062990   0.314140   0.315765   x 
            x  Ni         110         0.185429   0.441315   0.321332   x 
            x  Ni         111         0.310706   0.440086   0.189062   x 
            x  Ni         112         0.186639   0.313363   0.187736   x 
            x  Ni         113         0.436223   0.436314   0.316522   x 
            x  Ni         114         0.436636   0.312954   0.188613   x 
            x  Ni         115         0.564415   0.305813   0.315489   x 
            x  Ni         116         0.818972   0.312220   0.313772   x 
            x  Ni         117         0.814201   0.436964   0.189519   x 
            x  Ni         118         0.688184   0.306770   0.187764   x 
            x  Ni         119         0.055418   0.563993   0.310982   x 
            x  Ni         120         0.061514   0.687872   0.185846   x 
            x  Ni         121         0.185553   0.688038   0.313550   x 
            x  Ni         122         0.314222   0.687642   0.190504   x 
            x  Ni         123         0.188736   0.565172   0.189981   x 
            x  Ni         124         0.436775   0.686410   0.316065   x 
            x  Ni         125         0.565671   0.558350   0.313612   x 
            x  Ni         126         0.563824   0.687196   0.193149   x 
            x  Ni         127         0.690632   0.686567   0.315942   x 
            x  Ni         128         0.817268   0.561759   0.314163   x 
            x  Ni         129         0.815872   0.686234   0.192108   x 
            x  Ni         130         0.688686   0.558945   0.192419   x 
            x  Ni         131         0.059697   0.937979   0.188387   x 
            x  Ni         132         0.185651   0.935388   0.313479   x 
            x  Ni         133         0.310330   0.812560   0.313624   x 
            x  Ni         134         0.312087   0.937240   0.188549   x 
            x  Ni         135         0.186787   0.812175   0.188622   x 
            x  Ni         136         0.437362   0.938460   0.316094   x 
            x  Ni         137         0.563348   0.813461   0.319898   x 
            x  Ni         138         0.440599   0.815755   0.193948   x 
            x  Ni         139         0.691902   0.940254   0.318926   x 
            x  Ni         140         0.818169   0.811945   0.314250   x 
            x  Ni         141         0.816508   0.936889   0.192375   x 
            x  Ni         142         0.689909   0.813921   0.195226   x 
            x  Ni         143         0.062009   0.060932   0.563184   x 
            x  Ni         144         0.064735   0.186288   0.438301   x 
            x  Ni         145         0.184882   0.189337   0.567244   x 
            x  Ni         146         0.309234   0.061317   0.565050   x 
            x  Ni         147         0.428551   0.188874   0.317178   x 
            x  Ni         148         0.184425   0.934936   0.564746   x 
            x  Ni         149         0.438072   0.190002   0.566191   x 
            x  Ni         150         0.566081   0.063859   0.562483   x 
            x  Ni         151         0.563381   0.068902   0.317095   x 
            x  Ni         152         0.432937   0.063891   0.439634   x 
            x  Ni         153         0.692740   0.307134   0.441804   x 
            x  Ni         154         0.820906   0.061651   0.565785   x 
            x  Ni         155         0.821125   0.187281   0.440624   x 
            x  Ni         156         0.693547   0.065773   0.439718   x 
            x  Ni         157         0.058360   0.310272   0.566927   x 
            x  Ni         158         0.051182   0.437256   0.440552   x 
            x  Ni         159         0.307597   0.550314   0.554398   x 
            x  Ni         160         0.186950   0.315486   0.441866   x 
            x  Ni         161         0.439314   0.562234   0.683705   x 
            x  Ni         162         0.570322   0.308032   0.569265   x 
            x  Ni         163         0.566521   0.433291   0.437162   x 
            x  Ni         164         0.434010   0.314829   0.440780   x 
            x  Ni         165         0.816179   0.186596   0.692807   x 
            x  Ni         166         0.818134   0.436710   0.441313   x 
            x  Ni         167         0.815179   0.313726   0.568941   x 
            x  Ni         168         0.054858   0.563411   0.565821   x 
            x  Ni         169         0.059129   0.695675   0.439171   x 
            x  Ni         170         0.309270   0.683116   0.441339   x 
            x  Ni         171         0.311037   0.324086   0.565862   x 
            x  Ni         172         0.440006   0.684555   0.557786   x 
            x  Ni         173         0.567560   0.563636   0.561082   x 
            x  Ni         174         0.438109   0.559760   0.436947   x 
            x  Ni         175         0.817240   0.563211   0.564801   x 
            x  Ni         176         0.817013   0.687845   0.439249   x 
            x  Ni         177         0.693166   0.563248   0.438734   x 
            x  Ni         178         0.061476   0.934874   0.436427   x 
            x  Ni         179         0.311427   0.938624   0.439863   x 
            x  Ni         180         0.439108   0.936716   0.559040   x 
            x  Ni         181         0.692619   0.812142   0.439335   x 
            x  Ni         182         0.818350   0.811650   0.564884   x 
            x  Ni         183         0.818913   0.937125   0.438546   x 
            xxxxxxxxxxxxxxxxxxxxxxxxxxxxxxxxxxxxxxxxxxxxxxxxxxxxxxxxxxxx
 
 
                         No user defined ionic velocities
 
                           -------------------------------
                                   Details of Species
                           -------------------------------
 
                               Mass of species in AMU
                                    Al   26.9815400
                                    Ni   58.6934000
 
                          Electric Quadrupole Moment (Barn)
                                    Al    0.1466000 Isotope 27
                                    Ni    0.1620000 Isotope 61
 
                          Files used for pseudopotentials:
                                    Al 3|2.2|2.2|1.4|4|5|5|30:31:32U2U2
                                    Ni 3|2.4|2.4|1.0|8|9|10|40:41:32U2U2(qc=5.5)
 
                           -------------------------------
                              k-Points For BZ Sampling
                           -------------------------------
                       MP grid size for SCF calculation is  1  1  1
                            with an offset of   0.000  0.000  0.000
                       Number of kpoints used =             1
 
                           -------------------------------
                               Symmetry and Constraints
                           -------------------------------
 
                      Maximum deviation from symmetry =  0.00000         ANG
 
                      Number of symmetry operations   =           1
                      Number of ionic constraints     =           3
                      Point group of crystal =     1: C1, 1, 1
                      Space group of crystal =     1: P1, P 1
 
             Set iprint > 1 for details on symmetry rotations/translations
 
                         Centre of mass is constrained
             Set iprint > 1 for details of linear ionic constraints
 
                         Number of cell constraints= 6
                         Cell constraints are:  0 0 0 0 0 0
 
                         External pressure/stress (GPa)
                          0.00000   0.00000   0.00000
                                    0.00000   0.00000
                                              0.00000
 
+---------------- MEMORY AND SCRATCH DISK ESTIMATES PER PROCESS --------------+
|                                                     Memory          Disk    |
| Baseline code, static data and system overhead      861.0 MB         0.0 MB |
| BLAS internal memory storage                          0.0 MB         0.0 MB |
| Model and support data                              335.0 MB         0.0 MB |
| Electronic energy minimisation requirements          66.7 MB         0.0 MB |
| Force calculation requirements                        1.7 MB         0.0 MB |
|                                               ----------------------------- |
| Approx. total storage required per process         1262.7 MB         0.0 MB |
|                                                                             |
| Requirements will fluctuate during execution and may exceed these estimates |
+-----------------------------------------------------------------------------+
Calculating approximate eigenstates for fixed initial Hamiltonian
Cut-off for approx. calculation is  550.359 eV
Resetting cut-off to  900.000 eV
Calculating total energy with cut-off of  900.000 eV.
------------------------------------------------------------------------ <-- SCF
SCF loop      Energy           Fermi           Energy gain       Timer   <-- SCF
                               energy          per atom          (sec)   <-- SCF
------------------------------------------------------------------------ <-- SCF
Initial  -2.60449502E+005  0.00000000E+000                      1397.13  <-- SCF
      1  -2.59957399E+005  3.33231726E+000  -1.92981701E+000    1427.82  <-- SCF
      2  -2.60103038E+005  3.42173373E+000   5.71131165E-001    1460.22  <-- SCF
      3  -2.61313485E+005  9.01690496E+000   4.74685162E+000    1508.50  <-- SCF
      4  -2.61371786E+005  9.00270700E+000   2.28634371E-001    1541.14  <-- SCF
      5  -2.60170211E+005  6.63962297E+000  -4.71206135E+000    1597.85  <-- SCF
      6  -2.60378411E+005  6.62327622E+000   8.16470920E-001    1631.07  <-- SCF
      7  -2.60048716E+005  4.93457750E+000  -1.29292316E+000    1684.15  <-- SCF
      8  -2.60004102E+005  4.60413154E+000  -1.74954114E-001    1721.97  <-- SCF
      9  -2.60000408E+005  4.59807758E+000  -1.44879596E-002    1761.33  <-- SCF
     10  -2.60000441E+005  4.65846984E+000   1.31614957E-004    1793.77  <-- SCF
     11  -2.59995088E+005  4.63502619E+000  -2.09921312E-002    1826.72  <-- SCF
     12  -2.59996955E+005  4.63728925E+000   7.31936915E-003    1868.71  <-- SCF
     13  -2.59996810E+005  4.59530311E+000  -5.68566477E-004    1907.26  <-- SCF
     14  -2.59994461E+005  4.57214595E+000  -9.20988464E-003    1943.49  <-- SCF
     15  -2.59994869E+005  4.58132145E+000   1.59883055E-003    1993.29  <-- SCF
     16  -2.59994289E+005  4.58841626E+000  -2.27480164E-003    2053.49  <-- SCF
     17  -2.59994080E+005  4.58530363E+000  -8.20783477E-004    2088.35  <-- SCF
     18  -2.59994101E+005  4.58481513E+000   8.18540834E-005    2122.20  <-- SCF
     19  -2.59994083E+005  4.58285287E+000  -6.92339052E-005    2158.67  <-- SCF
     20  -2.59994067E+005  4.58292168E+000  -6.40451645E-005    2189.20  <-- SCF
     21  -2.59994070E+005  4.58327875E+000   1.40216657E-005    2219.87  <-- SCF
     22  -2.59994067E+005  4.58431986E+000  -1.09173020E-005    2255.31  <-- SCF
     23  -2.59994065E+005  4.58457232E+000  -9.35681059E-006    2294.92  <-- SCF
     24  -2.59994065E+005  4.58453219E+000   5.00876179E-007    2318.96  <-- SCF
     25  -2.59994065E+005  4.58419440E+000  -6.83043623E-007    2342.46  <-- SCF
------------------------------------------------------------------------ <-- SCF
 
Final energy, E             =  -259989.8932390     eV
Final free energy (E-TS)    =  -259994.0648814     eV
(energies not corrected for finite basis set)
 
NB est. 0K energy (E-0.5TS)      =  -259991.9790602     eV
 

Writing analysis data to castep.castep_bin

Writing model to castep.check
 
+---------------- MEMORY AND SCRATCH DISK ESTIMATES PER PROCESS --------------+
|                                                     Memory          Disk    |
| Model and support data                              345.7 MB         0.0 MB |
| Electronic energy minimisation requirements          66.7 MB         0.0 MB |
| Geometry minimisation requirements                   80.9 MB         0.0 MB |
|                                               ----------------------------- |
| Approx. total storage required per process          493.3 MB         0.0 MB |
|                                                                             |
| Requirements will fluctuate during execution and may exceed these estimates |
+-----------------------------------------------------------------------------+
 
 
 ************************************** Forces **************************************
 *                                                                                  *
 *                           Cartesian components (eV/A)                            *
 * -------------------------------------------------------------------------------- *
 *                         x                    y                    z              *
 *                                                                                  *
 * Al              1     -0.42286              0.12745             -0.10399         *
 * Al              2     -0.22040             -0.09797              0.09327         *
 * Al              3     -2.35770             -1.99267              0.27082         *
 * Al              4     -2.75890              1.19566              1.07663         *
 * Al              5     -1.15199              0.01222             -0.90921         *
 * Al              6     -1.51402              0.03163             -1.35008         *
 * Al              7     -0.33377             -0.12417              0.10110         *
 * Al              8     -0.42208              0.09223              0.03091         *
 * Al              9     -2.21419             -0.64725              1.06668         *
 * Al             10     -2.50155              0.29120              1.08982         *
 * Al             11     -1.44839              0.61111             -0.34544         *
 * Al             12     -2.33210              0.01933             -1.74424         *
 * Al             13     -0.48438              0.06574             -0.02925         *
 * Al             14     -0.62979             -0.43361             -0.06204         *
 * Al             15     -0.89350              0.26970             -0.10194         *
 * Al             16     -2.84428              0.28205             -0.75834         *
 * Al             17      0.19970              0.02829              0.10702         *
 * Al             18     -0.05641              0.12301              0.05978         *
 * Al             19      0.03071             -0.07086             -0.11291         *
 * Al             20     -0.14176              0.00146             -0.14873         *
 * Al             21      0.33097              0.13094              0.05372         *
 * Al             22      0.15884             -0.03408              0.01769         *
 * Al             23      0.02817              0.05882             -0.11874         *
 * Al             24      2.80764             -0.03624              0.28888         *
 * Al             25      0.16560              0.03681              0.20201         *
 * Al             26     -0.01276             -0.24116             -0.09432         *
 * Al             27      0.01327              0.03722             -0.12446         *
 * Al             28      0.14682             -0.10142             -0.01258         *
 * Al             29      0.27412             -0.25375             -0.05519         *
 * Al             30     -0.25384             -0.00864             -0.02906         *
 * Al             31     -0.10654              0.14066              0.06324         *
 * Al             32      0.14058             -0.16445             -0.05393         *
 * Al             33      2.47532              0.10123              1.12541         *
 * Al             34     -0.12781             -0.07911              0.01876         *
 * Al             35      0.02450              0.04176              0.00618         *
 * Al             36      0.14077              0.17497             -0.04322         *
 * Al             37     -0.00785             -0.02195              0.03697         *
 * Al             38      0.02313              0.04536              0.08527         *
 * Al             39      0.97470              0.09009              0.57886         *
 * Al             40      0.06043             -0.10138             -0.10568         *
 * Al             41      0.11196              0.15570              0.06704         *
 * Al             42     -0.38831              0.29804              0.13912         *
 * Al             43     -0.23138             -0.09956              0.07094         *
 * Al             44      0.14962             -0.08851             -0.01604         *
 * Al             45      1.79054              0.02588              0.19630         *
 * Al             46     -0.25409             -0.06413             -0.02182         *
 * Al             47     -0.07858              0.13828              0.15106         *
 * Al             48     -0.30001              0.05847             -0.02611         *
 * Al             49     -0.03565              0.03385             -0.05357         *
 * Al             50      0.03180             -0.08909              0.11618         *
 * Al             51     -0.15815             -0.01949              0.03575         *
 * Al             52     -0.02558              0.14025             -0.08141         *
 * Al             53      0.16233             -0.08087             -0.18253         *
 * Al             54      0.14030             -0.01344              0.18046         *
 * Al             55      0.09515              0.37607             -0.22209         *
 * Al             56     -0.04867             -0.14680              0.05750         *
 * Al             57      0.13636              0.16872              0.12201         *
 * Al             58      2.12192              0.00530              0.09297         *
 * Al             59      0.50707             -0.27228              0.04083         *
 * Al             60     -0.15174             -0.22193             -0.24919         *
 * Al             61      0.05689              0.22089              0.02677         *
 * Al             62      1.61157             -0.38872             -0.37819         *
 * Al             63     -0.02862              0.06925              0.09606         *
 * Al             64     -0.09106             -0.18975             -0.16942         *
 * Al             65     -0.14011             -0.00620             -0.19861         *
 * Al             66      0.04383             -0.05442             -0.23660         *
 * Al             67      0.01704             -0.04823              0.03880         *
 * Al             68      2.99458              0.54194             -0.16402         *
 * Al             69     -0.10806             -0.00998              0.20128         *
 * Al             70     -0.15408              0.17617              0.08377         *
 * Al             71     -0.07038              0.11547              0.16746         *
 * Al             72      0.10133             -0.31713             -0.21408         *
 * Ni              1     -0.17542              0.10237             -0.00695         *
 * Ni              2     -0.30878             -0.12448              0.26197         *
 * Ni              3     -0.68056             -0.20426              0.21727         *
 * Ni              4     -0.32979              0.12992              0.15669         *
 * Ni              5      0.14148              0.04976             -0.04629         *
 * Ni              6      0.18982             -0.31641              0.19093         *
 * Ni              7     -0.23014              0.03431             -0.15693         *
 * Ni              8     -0.44980              0.19834             -0.09544         *
 * Ni              9     -0.15785             -0.04858             -0.06932         *
 * Ni             10     -0.39430             -0.07780             -0.74925         *
 * Ni             11     -0.58709              0.49438             -0.39733         *
 * Ni             12     -0.39478             -0.31741             -0.24461         *
 * Ni             13     -0.14521             -0.22028             -0.07339         *
 * Ni             14     -0.49503             -0.11747              0.49636         *
 * Ni             15     -0.55995              0.65296              0.32657         *
 * Ni             16     -0.67273              0.06307             -0.31872         *
 * Ni             17      0.45128              0.04999             -0.05020         *
 * Ni             18      0.36747              0.14459              0.11649         *
 * Ni             19     -0.14850             -0.02856             -0.07660         *
 * Ni             20      0.00529              0.02463              0.20711         *
 * Ni             21     -0.26380             -0.00284              0.05040         *
 * Ni             22      0.03299              0.11754             -0.08406         *
 * Ni             23     -0.05280             -0.12084              0.11731         *
 * Ni             24      0.09133             -0.11756              0.12695         *
 * Ni             25     -0.01965              0.22540             -0.05478         *
 * Ni             26      0.23633             -0.13116              0.11301         *
 * Ni             27     -0.32841              0.16673             -0.08313         *
 * Ni             28      0.04396             -0.01193              0.21820         *
 * Ni             29      0.03442             -0.07440              0.07930         *
 * Ni             30      0.29298              0.14958             -0.28945         *
 * Ni             31      0.24372             -0.22307              0.00749         *
 * Ni             32      0.01342             -0.05285              0.18465         *
 * Ni             33     -0.07545              0.08337             -0.17840         *
 * Ni             34      0.08574              0.01094             -0.13562         *
 * Ni             35      0.04116             -0.37200              0.10165         *
 * Ni             36     -0.21082              0.04657              0.07467         *
 * Ni             37     -0.03270             -0.07137             -0.11884         *
 * Ni             38     -0.09163             -0.00201              0.02073         *
 * Ni             39      0.15730             -0.11413              0.14335         *
 * Ni             40      0.83449             -0.08474             -0.50598         *
 * Ni             41     -0.09236              0.01621             -0.05674         *
 * Ni             42      0.09586             -0.00672              0.18581         *
 * Ni             43      0.00722             -0.09120              0.04976         *
 * Ni             44     -0.20876              0.05166             -0.08313         *
 * Ni             45      0.05213             -0.15360             -0.09007         *
 * Ni             46      0.23657              0.19035              0.04934         *
 * Ni             47     -0.02043              0.13533             -0.06007         *
 * Ni             48      0.01747              0.00540              0.13655         *
 * Ni             49      0.75529             -0.14765             -0.15271         *
 * Ni             50      0.49085              0.04044             -0.10625         *
 * Ni             51      0.13094             -0.09184              0.11859         *
 * Ni             52      0.15942              0.11752              0.16718         *
 * Ni             53      0.01712             -0.04276             -0.27187         *
 * Ni             54      0.05153             -0.06398              0.15850         *
 * Ni             55      0.20539              0.24191             -0.02324         *
 * Ni             56      0.03476              0.06218              0.15429         *
 * Ni             57      0.22796             -0.10051             -0.03706         *
 * Ni             58      0.16214              0.06302              0.09035         *
 * Ni             59     -0.03044              0.05176             -0.25839         *
 * Ni             60     -0.06041             -0.05840              0.18074         *
 * Ni             61     -0.17066             -0.03083              0.07165         *
 * Ni             62      0.15412              0.02156             -0.20457         *
 * Ni             63      0.15301              0.07333              0.22549         *
 * Ni             64      0.11167             -0.01007              0.08098         *
 * Ni             65      0.07057              0.09136              0.12442         *
 * Ni             66     -0.07807              0.14716             -0.00596         *
 * Ni             67      0.14766              0.10733             -0.15765         *
 * Ni             68     -0.02143              0.04985             -0.11624         *
 * Ni             69     -0.15892             -0.13179              0.03078         *
 * Ni             70     -0.03331             -0.07578             -0.16531         *
 * Ni             71     -0.19654             -0.12480              0.03905         *
 * Ni             72      0.25903             -0.26272              0.11725         *
 * Ni             73     -0.01356             -0.05755              0.12040         *
 * Ni             74      0.00714             -0.08380              0.02259         *
 * Ni             75      0.15763             -0.00359              0.23429         *
 * Ni             76      0.01097              0.04924              0.02867         *
 * Ni             77      0.04666             -0.07800              0.00871         *
 * Ni             78     -0.20311              0.15973             -0.12841         *
 * Ni             79      0.05602             -0.12634             -0.00323         *
 * Ni             80      0.19922             -0.06187              0.51823         *
 * Ni             81     -0.10453              0.08277              0.22362         *
 * Ni             82      0.71237              0.00265              0.05445         *
 * Ni             83      0.36863              0.17623              0.34009         *
 * Ni             84     -0.22850             -0.20074              0.27264         *
 * Ni             85     -0.29829              0.17342              0.09799         *
 * Ni             86     -0.04195             -0.02435             -0.03351         *
 * Ni             87     -0.00892             -0.05254             -0.05018         *
 * Ni             88     -0.08437             -0.00305             -0.05595         *
 * Ni             89      0.11030              0.13294              0.04544         *
 * Ni             90     -0.21224             -0.01336             -0.03520         *
 * Ni             91      0.29560             -0.06366              0.01480         *
 * Ni             92      0.75981             -0.25032             -0.18256         *
 * Ni             93      0.34957              0.15767              0.12379         *
 * Ni             94     -0.00967              0.10056              0.21624         *
 * Ni             95     -0.21064             -0.03946              0.11110         *
 * Ni             96      0.02944              0.02727              0.11393         *
 * Ni             97     -0.12043              0.03066              0.19102         *
 * Ni             98      0.26041              0.06617             -0.08047         *
 * Ni             99      0.32026              0.14634             -0.20984         *
 * Ni            100     -0.06679             -0.03135              0.06380         *
 * Ni            101      0.39928              0.07579             -0.07881         *
 * Ni            102     -0.09845              0.01874              0.08634         *
 * Ni            103     -0.06164              0.06661              0.01131         *
 * Ni            104     -0.13634             -0.04965             -0.28079         *
 * Ni            105      0.05400             -0.04378             -0.14743         *
 * Ni            106      0.04406              0.12269             -0.13307         *
 * Ni            107     -0.35146             -0.05923              0.13744         *
 * Ni            108     -0.00625              0.01288              0.07722         *
 * Ni            109      0.33373              0.07505             -0.11063         *
 * Ni            110     -0.14173             -0.00687             -0.04976         *
 * Ni            111      0.00208              0.06996              0.02825         *
 * Ni            112     -0.00569             -0.03961             -0.18004         *
 * Ni            113      0.18362              0.11744             -0.05385         *
 * Ni            114      0.14261             -0.06684             -0.12537         *
 * Ni            115     -0.10830              0.08675              0.14845         *
 * Ni            116     -0.08384             -0.06591              0.15636         *
 * Ni            117     -0.02903              0.01438             -0.18251         *
 * Ni            118     -0.11010              0.03310             -0.23806         *
 * Ni            119      1.20311             -0.01634              0.35020         *
 * Ni            120      0.65337              0.05908              0.24615         *
 * Ni            121     -0.04280             -0.02061             -0.06019         *
 * Ni            122     -0.14940              0.15396              0.18054         *
 * Ni            123      0.15585              0.05660             -0.23972         *
 * Ni            124     -0.08495              0.14293             -0.05322         *
 * Ni            125      0.00197             -0.08636              0.04751         *
 * Ni            126     -0.07652             -0.11724             -0.29013         *
 * Ni            127      0.26134              0.03929             -0.29927         *
 * Ni            128     -0.22211              0.09273              0.20227         *
 * Ni            129     -0.16021             -0.06006              0.09090         *
 * Ni            130     -0.22700              0.14733              0.22477         *
 * Ni            131      0.91579              0.01112              0.01220         *
 * Ni            132     -0.08332             -0.01186             -0.03397         *
 * Ni            133      0.11312              0.00815             -0.32909         *
 * Ni            134     -0.32667             -0.28211              0.08844         *
 * Ni            135      0.17611              0.12560             -0.24388         *
 * Ni            136     -0.12976             -0.03960              0.00637         *
 * Ni            137      0.04539             -0.14546              0.05822         *
 * Ni            138     -0.10168              0.02611              0.18704         *
 * Ni            139      0.29000             -0.12563             -0.15835         *
 * Ni            140     -0.29983              0.05454              0.17330         *
 * Ni            141     -0.09571              0.00331             -0.03878         *
 * Ni            142     -0.13021             -0.14321              0.10499         *
 * Ni            143      0.45495              0.08620              0.25510         *
 * Ni            144      0.26137              0.12469              0.14084         *
 * Ni            145     -0.11312             -0.05576             -0.04391         *
 * Ni            146      0.21638             -0.10419             -0.01525         *
 * Ni            147     -0.10044             -0.00138             -0.01458         *
 * Ni            148     -0.02406              0.17663             -0.21700         *
 * Ni            149     -0.17526             -0.07999              0.06806         *
 * Ni            150     -0.11612             -0.03025              0.02115         *
 * Ni            151     -0.03775              0.01483              0.03143         *
 * Ni            152      0.10531              0.04875              0.19147         *
 * Ni            153     -0.02727             -0.09917             -0.08913         *
 * Ni            154     -0.18501              0.12344             -0.05085         *
 * Ni            155     -0.00336              0.06656              0.10892         *
 * Ni            156      0.05573             -0.09141             -0.09571         *
 * Ni            157      0.55623             -0.02446             -0.04559         *
 * Ni            158      1.62458              0.03360             -0.28994         *
 * Ni            159     -0.00446              0.08639              0.02970         *
 * Ni            160     -0.10800             -0.23928             -0.15794         *
 * Ni            161      0.11550              0.10456              0.01287         *
 * Ni            162      0.19439             -0.23127             -0.04480         *
 * Ni            163     -0.18066              0.18120             -0.08990         *
 * Ni            164      0.23367             -0.04031             -0.15646         *
 * Ni            165     -0.00626              0.00855              0.07868         *
 * Ni            166      0.09698             -0.01273              0.11985         *
 * Ni            167     -0.22930             -0.07344             -0.19799         *
 * Ni            168      1.14323             -0.12465             -0.11130         *
 * Ni            169      0.53712              0.03118              0.01886         *
 * Ni            170      0.00527             -0.31112             -0.05582         *
 * Ni            171      0.01593             -0.01051              0.25476         *
 * Ni            172     -0.00827              0.03058              0.07379         *
 * Ni            173     -0.19657              0.09125              0.07427         *
 * Ni            174      0.25173             -0.12437              0.08183         *
 * Ni            175     -0.00936             -0.12031             -0.13180         *
 * Ni            176     -0.06067             -0.09606             -0.24291         *
 * Ni            177      0.09408              0.14081             -0.07847         *
 * Ni            178      0.72246             -0.25987              0.27549         *
 * Ni            179     -0.26320              0.10869              0.14478         *
 * Ni            180     -0.25349              0.14036             -0.09062         *
 * Ni            181      0.10327             -0.00044             -0.15554         *
 * Ni            182     -0.03187              0.02701             -0.14276         *
 * Ni            183      0.05926              0.05834             -0.18498         *
 *                                                                                  *
 ************************************************************************************
 LBFGS: finished iteration     0 with enthalpy= -2.59994065E+005 eV
  
 +-----------+-----------------+-----------------+------------+-----+ <-- LBFGS
 | Parameter |      value      |    tolerance    |    units   | OK? | <-- LBFGS
 +-----------+-----------------+-----------------+------------+-----+ <-- LBFGS
 |  dE/ion   |   0.000000E+000 |   2.000000E-005 |         eV | No  | <-- LBFGS
 |  |F|max   |   3.193782E+000 |   5.000000E-002 |       eV/A | No  | <-- LBFGS
 |  |dR|max  |   0.000000E+000 |   1.000000E-003 |          A | No  | <-- LBFGS
 +-----------+-----------------+-----------------+------------+-----+ <-- LBFGS
  

================================================================================
 Starting LBFGS iteration          1 ...
================================================================================
  
 +------------+-------------+-------------+-----------------+ <-- min LBFGS
 |    Step    |   lambda    |   F.delta'  |    enthalpy     | <-- min LBFGS
 +------------+-------------+-------------+-----------------+ <-- min LBFGS
 |  previous  |    0.000000 |    6.013116 |  -259994.064881 | <-- min LBFGS
 +------------+-------------+-------------+-----------------+ <-- min LBFGS
  

--------------------------------------------------------------------------------
 LBFGS: starting iteration         1 with trial guess (lambda=  1.000000)
--------------------------------------------------------------------------------
 
                           -------------------------------
                                     Cell Contents
                           -------------------------------
 
            xxxxxxxxxxxxxxxxxxxxxxxxxxxxxxxxxxxxxxxxxxxxxxxxxxxxxxxxxxxxxxxxx
            x  Element         Atom        Fractional coordinates of atoms  x
            x                 Number           u          v          w      x
            x---------------------------------------------------------------x
            x  Al                1         0.943111   0.061987   0.691663   x
            x  Al                2         0.942163   0.313797   0.691546   x
            x  Al                3         0.946661   0.563084   0.685712   x
            x  Al                4         0.943316   0.811542   0.690709   x
            x  Al                5         0.941625   0.060006   0.939747   x
            x  Al                6         0.941246   0.314590   0.939719   x
            x  Al                7         0.948773   0.564924   0.941505   x
            x  Al                8         0.945332   0.810396   0.936954   x
            x  Al                9         0.943695   0.061148   0.189371   x
            x  Al               10         0.942142   0.313443   0.187990   x
            x  Al               11         0.945794   0.562634   0.193881   x
            x  Al               12         0.948106   0.811605   0.195892   x
            x  Al               13         0.944912   0.062464   0.440553   x
            x  Al               14         0.943186   0.312462   0.441434   x
            x  Al               15         0.943511   0.562203   0.440162   x
            x  Al               16         0.943943   0.812450   0.439362   x
            x  Al               17         0.700639   0.938530   0.561514   x
            x  Al               18         0.428019   0.811068   0.437552   x
            x  Al               19         0.563502   0.944753   0.435409   x
            x  Al               20         0.175744   0.929851   0.808621   x
            x  Al               21         0.193789   0.811198   0.439436   x
            x  Al               22         0.171257   0.569923   0.439848   x
            x  Al               23         0.314958   0.933642   0.682888   x
            x  Al               24         0.053696   0.818763   0.563171   x
            x  Al               25         0.694661   0.687826   0.566454   x
            x  Al               26         0.564985   0.683490   0.433298   x
            x  Al               27         0.311834   0.446909   0.692656   x
            x  Al               28         0.174502   0.434366   0.565154   x
            x  Al               29         0.699203   0.183637   0.563709   x
            x  Al               30         0.446677   0.437311   0.558752   x
            x  Al               31         0.310874   0.189972   0.451856   x
            x  Al               32         0.569432   0.941413   0.199963   x
            x  Al               33         0.061521   0.810672   0.308112   x
            x  Al               34         0.436905   0.563586   0.194461   x
            x  Al               35         0.308922   0.558844   0.321292   x
            x  Al               36         0.696988   0.432582   0.322159   x
            x  Al               37         0.564960   0.430364   0.197160   x
            x  Al               38         0.309293   0.320266   0.312768   x
            x  Al               39         0.072018   0.440393   0.189216   x
            x  Al               40         0.700502   0.187660   0.315969   x
            x  Al               41         0.689965   0.439910   0.559412   x
            x  Al               42         0.556986   0.314357   0.057612   x
            x  Al               43         0.554022   0.182816   0.193414   x
            x  Al               44         0.309264   0.058907   0.311551   x
            x  Al               45         0.065017   0.188502   0.201892   x
            x  Al               46         0.690139   0.813926   0.938830   x
            x  Al               47         0.811728   0.811392   0.072708   x
            x  Al               48         0.559205   0.807810   0.810638   x
            x  Al               49         0.440187   0.935800   0.066985   x
            x  Al               50         0.313726   0.929033   0.934294   x
            x  Al               51         0.804497   0.563714   0.065713   x
            x  Al               52         0.442685   0.700250   0.068779   x
            x  Al               53         0.572682   0.563591   0.059822   x
            x  Al               54         0.314043   0.690983   0.939148   x
            x  Al               55         0.696948   0.317180   0.929959   x
            x  Al               56         0.188716   0.308055   0.937610   x
            x  Al               57         0.319747   0.447808   0.942382   x
            x  Al               58         0.057512   0.311189   0.060861   x
            x  Al               59         0.697582   0.179436   0.065217   x
            x  Al               60         0.556114   0.175866   0.931226   x
            x  Al               61         0.189231   0.069356   0.936280   x
            x  Al               62         0.061641   0.062676   0.066514   x
            x  Al               63         0.559353   0.940773   0.682851   x
            x  Al               64         0.807436   0.566880   0.815143   x
            x  Al               65         0.563871   0.566109   0.813346   x
            x  Al               66         0.315673   0.683280   0.679452   x
            x  Al               67         0.181293   0.688281   0.816330   x
            x  Al               68         0.052868   0.683057   0.689818   x
            x  Al               69         0.556851   0.181512   0.692502   x
            x  Al               70         0.554690   0.187775   0.440559   x
            x  Al               71         0.695157   0.315164   0.700039   x
            x  Al               72         0.319167   0.305924   0.809630   x
            x  Ni                1         0.940497   0.186384   0.816139   x
            x  Ni                2         0.940325   0.443727   0.814418   x
            x  Ni                3         0.940473   0.684539   0.813786   x
            x  Ni                4         0.941027   0.935969   0.814868   x
            x  Ni                5         0.818719   0.186857   0.188504   x
            x  Ni                6         0.938563   0.441287   0.066280   x
            x  Ni                7         0.939022   0.687341   0.067658   x
            x  Ni                8         0.940225   0.933027   0.065929   x
            x  Ni                9         0.940785   0.187928   0.314097   x
            x  Ni               10         0.940088   0.436750   0.315371   x
            x  Ni               11         0.942056   0.686605   0.317191   x
            x  Ni               12         0.942723   0.937737   0.315914   x
            x  Ni               13         0.939953   0.188372   0.567121   x
            x  Ni               14         0.940800   0.437292   0.564902   x
            x  Ni               15         0.941215   0.688113   0.563623   x
            x  Ni               16         0.940665   0.936436   0.565437   x
            x  Ni               17         0.061997   0.062562   0.815114   x
            x  Ni               18         0.062175   0.185939   0.690652   x
            x  Ni               19         0.189169   0.187136   0.810982   x
            x  Ni               20         0.308755   0.055908   0.811362   x
            x  Ni               21         0.313287   0.186778   0.684964   x
            x  Ni               22         0.185929   0.059506   0.689350   x
            x  Ni               23         0.435481   0.182281   0.811390   x
            x  Ni               24         0.562363   0.056770   0.811346   x
            x  Ni               25         0.434780   0.059182   0.686225   x
            x  Ni               26         0.688044   0.185169   0.814356   x
            x  Ni               27         0.816179   0.059120   0.815632   x
            x  Ni               28         0.688187   0.441193   0.812942   x
            x  Ni               29         0.691547   0.061030   0.688954   x
            x  Ni               30         0.062925   0.311629   0.816916   x
            x  Ni               31         0.062426   0.438244   0.694810   x
            x  Ni               32         0.192023   0.437342   0.817794   x
            x  Ni               33         0.438657   0.315865   0.688581   x
            x  Ni               34         0.187923   0.314263   0.692218   x
            x  Ni               35         0.437341   0.441823   0.812889   x
            x  Ni               36         0.688733   0.564594   0.937515   x
            x  Ni               37         0.820269   0.315463   0.815496   x
            x  Ni               38         0.816569   0.441126   0.689739   x
            x  Ni               39         0.564895   0.438033   0.688138   x
            x  Ni               40         0.061281   0.562467   0.817478   x
            x  Ni               41         0.313189   0.569389   0.814534   x
            x  Ni               42         0.184843   0.564852   0.688907   x
            x  Ni               43         0.438001   0.687786   0.810779   x
            x  Ni               44         0.689979   0.562892   0.687759   x
            x  Ni               45         0.563255   0.688476   0.684129   x
            x  Ni               46         0.687222   0.690737   0.811543   x
            x  Ni               47         0.817185   0.443252   0.939751   x
            x  Ni               48         0.817061   0.687483   0.689358   x
            x  Ni               49         0.056881   0.809883   0.813467   x
            x  Ni               50         0.057863   0.937178   0.688065   x
            x  Ni               51         0.182472   0.807637   0.686174   x
            x  Ni               52         0.310416   0.808025   0.807481   x
            x  Ni               53         0.181124   0.687602   0.565562   x
            x  Ni               54         0.310939   0.810511   0.563369   x
            x  Ni               55         0.436879   0.932812   0.810130   x
            x  Ni               56         0.688650   0.815055   0.686319   x
            x  Ni               57         0.438943   0.810836   0.682373   x
            x  Ni               58         0.687209   0.933734   0.811858   x
            x  Ni               59         0.815445   0.810279   0.814709   x
            x  Ni               60         0.817256   0.936187   0.690734   x
            x  Ni               61         0.565573   0.813537   0.556339   x
            x  Ni               62         0.061723   0.186691   0.939715   x
            x  Ni               63         0.185521   0.187679   0.065271   x
            x  Ni               64         0.311395   0.060198   0.062993   x
            x  Ni               65         0.314659   0.185972   0.937880   x
            x  Ni               66         0.438723   0.184621   0.062579   x
            x  Ni               67         0.564171   0.060773   0.065697   x
            x  Ni               68         0.433810   0.055245   0.938389   x
            x  Ni               69         0.818712   0.058328   0.064467   x
            x  Ni               70         0.815365   0.186046   0.938280   x
            x  Ni               71         0.691126   0.059337   0.938127   x
            x  Ni               72         0.063668   0.437306   0.939735   x
            x  Ni               73         0.189046   0.437754   0.060624   x
            x  Ni               74         0.313844   0.314041   0.062426   x
            x  Ni               75         0.442096   0.442349   0.067675   x
            x  Ni               76         0.435673   0.312755   0.937030   x
            x  Ni               77         0.561673   0.438501   0.936637   x
            x  Ni               78         0.561922   0.311295   0.815329   x
            x  Ni               79         0.686004   0.433286   0.064074   x
            x  Ni               80         0.939127   0.187218   0.063564   x
            x  Ni               81         0.814619   0.313621   0.061881   x
            x  Ni               82         0.062569   0.563249   0.065221   x
            x  Ni               83         0.061484   0.687705   0.941298   x
            x  Ni               84         0.188399   0.689926   0.063213   x
            x  Ni               85         0.316773   0.567915   0.066030   x
            x  Ni               86         0.188834   0.565083   0.940791   x
            x  Ni               87         0.438964   0.813239   0.938987   x
            x  Ni               88         0.441856   0.569714   0.942400   x
            x  Ni               89         0.687771   0.690809   0.067551   x
            x  Ni               90         0.815824   0.688869   0.941823   x
            x  Ni               91         0.563823   0.691897   0.939640   x
            x  Ni               92         0.060886   0.814577   0.065138   x
            x  Ni               93         0.061981   0.938994   0.940965   x
[...]
            Ni 56  -- Ni 61                  0.04        2.59858
            Ni 12  -- Ni 141                 0.00        2.59862
             Al 3  -- Ni 3                   0.17        2.59870
            Ni 4   -- Ni 49                  0.05        2.59900
            Ni 75  -- Ni 85                  0.06        2.59904
            Ni 119 -- Ni 123                 0.07        2.59911
            Ni 43  -- Ni 57                 -0.01        2.59914
            Ni 9   -- Ni 109                -0.02        2.59931
            Ni 66  -- Ni 68                  0.05        2.59940
            Ni 16  -- Ni 143                 0.03        2.59966
            Ni 52  -- Ni 57                  0.04        2.60010
             Al 63 -- Ni 56                  0.15        2.60015
             Al 22 -- Ni 159                 0.20        2.60033
            Ni 13  -- Ni 167                 0.07        2.60037
            Ni 35  -- Ni 39                  0.11        2.60039
            Ni 5   -- Ni 81                  0.01        2.60046
             Al 27 -- Ni 33                  0.13        2.60053
             Al 67 -- Ni 42                  0.16        2.60064
            Ni 54  -- Ni 148                -0.00        2.60075
            Ni 21  -- Ni 171                 0.07        2.60079
            Ni 16  -- Ni 60                  0.04        2.60126
            Ni 55  -- Ni 57                 -0.03        2.60136
             Al 11 -- Ni 82                  0.18        2.60138
             Al 71 -- Ni 167                 0.18        2.60143
             Al 25 -- Ni 181                 0.16        2.60170
            Ni 49  -- Ni 50                  0.01        2.60180
             Al 69 -- Ni 26                  0.18        2.60217
            Ni 74  -- Ni 111                 0.13        2.60221
            Ni 10  -- Ni 109                -0.03        2.60246
             Al 55 -- Ni 78                  0.19        2.60250
             Al 12 -- Ni 140                 0.17        2.60284
             Al 12 -- Al 33                  0.27        2.60301
            Ni 147 -- Ni 151                 0.07        2.60320
             Al 41 -- Ni 39                  0.16        2.60342
            Ni 11  -- Ni 128                 0.09        2.60354
            Ni 7   -- Ni 92                  0.06        2.60368
             Al 41 -- Ni 153                 0.19        2.60380
            Ni 29  -- Ni 154                 0.03        2.60419
             Al 27 -- Ni 34                  0.10        2.60453
             Al 13 -- Ni 178                 0.18        2.60496
            Ni 62  -- Ni 63                 -0.07        2.60502
            Ni 16  -- Ni 178                -0.02        2.60504
            Ni 154 -- Ni 156                 0.05        2.60507
            Ni 166 -- Ni 177                 0.08        2.60529
             Al 32 -- Ni 99                  0.17        2.60550
             Al 68 -- Ni 3                   0.15        2.60583
            Ni 24  -- Ni 26                  0.01        2.60590
            Ni 9   -- Ni 116                 0.07        2.60657
            Ni 42  -- Ni 159                 0.01        2.60680
             Al 26 -- Ni 181                 0.15        2.60684
             Al 44 -- Ni 104                 0.14        2.60689
             Al 70 -- Ni 153                 0.14        2.60690
             Al 3  -- Ni 15                  0.17        2.60718
            Ni 1   -- Ni 27                  0.02        2.60720
            Ni 137 -- Ni 139                 0.01        2.60723
             Al 8  -- Ni 90                  0.18        2.60732
            Ni 113 -- Ni 115                 0.10        2.60732
            Ni 27  -- Ni 100                 0.09        2.60745
             Al 21 -- Ni 178                 0.17        2.60757
            Ni 3   -- Ni 83                  0.01        2.60782
             Al 23 -- Ni 51                  0.18        2.60813
            Ni 24  -- Ni 68                  0.03        2.60820
            Ni 5   -- Ni 116                -0.01        2.60823
             Al 1  -- Ni 16                  0.17        2.60829
             Al 41 -- Ni 162                 0.18        2.60858
            Ni 47  -- Ni 79                  0.04        2.60928
            Ni 103 -- Ni 178                 0.14        2.60955
            Ni 8   -- Ni 141                -0.01        2.60959
             Al 66 -- Ni 159                 0.14        2.60978
            Ni 73  -- Ni 123                 0.06        2.60984
            Ni 2   -- Ni 38                  0.04        2.60991
             Al 9  -- Ni 101                 0.17        2.61066
             Al 23 -- Ni 22                  0.15        2.61094
            Ni 2   -- Ni 30                  0.05        2.61113
            Ni 87  -- Ni 97                 -0.00        2.61115
             Al 40 -- Ni 115                 0.15        2.61124
            Ni 110 -- Ni 111                 0.02        2.61179
            Ni 52  -- Ni 96                 -0.07        2.61187
             Al 61 -- Al 62                  0.26        2.61209
             Al 36 -- Ni 130                 0.16        2.61224
             Al 53 -- Ni 126                 0.16        2.61229
            Ni 12  -- Ni 107                 0.08        2.61239
             Al 21 -- Ni 169                 0.16        2.61267
            Ni 15  -- Ni 175                 0.07        2.61269
            Ni 26  -- Ni 78                 -0.11        2.61277
             Al 47 -- Ni 7                   0.16        2.61287
             Al 15 -- Ni 14                  0.18        2.61364
            Ni 63  -- Ni 65                  0.02        2.61374
            Ni 43  -- Ni 87                  0.00        2.61385
            Ni 49  -- Ni 96                  0.05        2.61425
            Ni 31  -- Ni 157                 0.01        2.61439
            Ni 124 -- Ni 125                 0.04        2.61446
             Al 37 -- Al 42                  0.23        2.61462
            Ni 115 -- Ni 147                 0.09        2.61463
             Al 64 -- Ni 2                   0.16        2.61636
            Ni 54  -- Ni 170                 0.06        2.61711
             Al 40 -- Ni 151                 0.15        2.61717
             Al 63 -- Ni 61                  0.18        2.61776
             Al 9  -- Ni 80                  0.19        2.61778
             Al 15 -- Ni 169                 0.20        2.61795
            Ni 182 -- Ni 183                -0.04        2.61796
            Ni 4   -- Ni 59                  0.01        2.61802
             Al 3  -- Al 68                  0.24        2.61806
             Al 15 -- Ni 10                  0.18        2.61858
            Ni 69  -- Ni 70                  0.03        2.61866
            Ni 40  -- Ni 72                  0.12        2.61878
            Ni 157 -- Ni 158                 0.01        2.61881
             Al 11 -- Ni 6                   0.20        2.61914
            Ni 163 -- Ni 177                 0.00        2.61940
             Al 14 -- Ni 167                 0.17        2.61964
            Ni 126 -- Ni 137                 0.12        2.61999
             Al 18 -- Ni 61                  0.15        2.62004
            Ni 54  -- Ni 179                 0.04        2.62033
            Ni 72  -- Ni 82                  0.03        2.62114
            Ni 149 -- Ni 171                 0.05        2.62171
            Ni 24  -- Ni 25                 -0.01        2.62175
             Al 36 -- Ni 125                 0.17        2.62200
            Ni 143 -- Ni 178                 0.09        2.62226
            Ni 121 -- Ni 169                -0.01        2.62236
             Al 26 -- Ni 61                  0.17        2.62252
             Al 43 -- Ni 108                 0.14        2.62307
            Ni 69  -- Ni 80                  0.08        2.62343
            Ni 23  -- Ni 78                  0.01        2.62347
            Ni 67  -- Ni 68                  0.05        2.62395
            Ni 7   -- Ni 82                  0.06        2.62428
            Ni 20  -- Ni 65                  0.05        2.62448
             Al 22 -- Al 35                  0.34        2.62513
             Al 60 -- Ni 76                  0.17        2.62521
             Al 48 -- Ni 98                  0.15        2.62533
            Ni 69  -- Ni 108                 0.07        2.62535
            Ni 51  -- Ni 148                 0.06        2.62539
             Al 25 -- Ni 61                  0.16        2.62568
            Ni 6   -- Ni 47                  0.04        2.62579
            Ni 28  -- Ni 78                  0.04        2.62603
             Al 43 -- Ni 118                 0.13        2.62623
             Al 61 -- Ni 93                  0.18        2.62646
             Al 16 -- Ni 178                 0.14        2.62666
            Ni 110 -- Ni 119                 0.03        2.62690
            Ni 21  -- Ni 33                  0.03        2.62699
             Al 62 -- Ni 62                  0.14        2.62737
            Ni 28  -- Ni 37                  0.02        2.62743
            Ni 73  -- Ni 85                  0.11        2.62818
             Al 2  -- Ni 2                   0.19        2.62835
            Ni 102 -- Ni 112                 0.02        2.62849
             Al 36 -- Al 37                  0.25        2.63000
            Ni 95  -- Ni 138                -0.00        2.63006
             Al 49 -- Al 50                  0.25        2.63026
             Al 5  -- Ni 8                   0.18        2.63149
             Al 4  -- Ni 3                   0.16        2.63240
            Ni 19  -- Ni 62                 -0.01        2.63254
             Al 42 -- Ni 118                 0.16        2.63296
             Al 28 -- Ni 42                  0.13        2.63344
             Al 72 -- Ni 32                  0.15        2.63408
            Ni 36  -- Ni 89                 -0.02        2.63419
             Al 46 -- Al 48                  0.25        2.63480
            Ni 41  -- Ni 161                -0.00        2.63502
            Ni 31  -- Ni 32                  0.10        2.63533
            Ni 74  -- Ni 75                  0.07        2.63539
            Ni 26  -- Ni 37                 -0.01        2.63543
            Ni 19  -- Ni 65                 -0.07        2.63554
             Al 50 -- Ni 64                  0.12        2.63582
            Ni 110 -- Ni 123                 0.00        2.63600
            Ni 89  -- Ni 130                 0.03        2.63667
            Ni 23  -- Ni 76                  0.01        2.63727
             Al 11 -- Ni 117                 0.15        2.63743
             Al 10 -- Ni 109                 0.16        2.63787
             Al 19 -- Ni 181                 0.13        2.63820
            Ni 20  -- Ni 21                  0.09        2.63881
            Ni 32  -- Ni 42                  0.07        2.63899
            Ni 102 -- Ni 105                 0.03        2.63910
            Ni 99  -- Ni 142                -0.01        2.63956
             Al 6  -- Ni 6                   0.17        2.63975
             Al 52 -- Ni 88                  0.17        2.63977
             Al 15 -- Ni 15                  0.18        2.64041
            Ni 40  -- Ni 83                 -0.02        2.64071
            Ni 133 -- Ni 179                -0.03        2.64071
             Al 14 -- Ni 10                  0.18        2.64135
            Ni 28  -- Ni 47                 -0.02        2.64371
             Al 24 -- Al 68                  0.22        2.64397
            Ni 91  -- Ni 97                  0.04        2.64399
            Ni 79  -- Ni 130                -0.01        2.64416
             Al 30 -- Ni 162                 0.16        2.64438
             Al 63 -- Ni 58                  0.15        2.64682
            Ni 37  -- Ni 47                  0.04        2.64752
            Ni 3   -- Ni 59                  0.03        2.64769
            Ni 106 -- Ni 147                 0.03        2.64787
            Ni 159 -- Ni 161                 0.05        2.64840
             Al 20 -- Ni 20                  0.16        2.64867
             Al 32 -- Ni 67                  0.16        2.64892
            Ni 119 -- Ni 169                 0.07        2.65049
             Al 52 -- Ni 85                  0.13        2.65198
             Al 56 -- Al 72                  0.24        2.65218
            Ni 116 -- Ni 117                 0.01        2.65455
            Ni 139 -- Ni 151                 0.00        2.65487
            Ni 102 -- Ni 109                 0.07        2.65503
            Ni 15  -- Ni 176                 0.04        2.65527
            Ni 53  -- Ni 159                 0.05        2.65637
             Al 48 -- Ni 58                  0.12        2.65718
            Ni 80  -- Ni 81                  0.07        2.65733
             Al 56 -- Ni 73                  0.14        2.65746
            Ni 36  -- Ni 79                  0.00        2.65848
            Ni 48  -- Ni 56                  0.08        2.65856
             Al 66 -- Ni 52                  0.16        2.65915
             Al 17 -- Ni 150                 0.14        2.66014
             Al 27 -- Al 72                  0.22        2.66059
             Al 61 -- Ni 94                  0.13        2.66177
             Al 3  -- Ni 40                  0.12        2.66222
            Ni 117 -- Ni 118                 0.11        2.66256
             Al 39 -- Ni 6                   0.14        2.66500
            Ni 35  -- Ni 88                  0.03        2.66663
             Al 20 -- Ni 52                  0.13        2.66684
             Al 35 -- Ni 122                 0.11        2.66755
            Ni 153 -- Ni 166                 0.07        2.66832
            Ni 110 -- Ni 112                 0.04        2.66868
            Ni 23  -- Ni 33                  0.02        2.66931
             Al 48 -- Al 63                  0.23        2.67036
            Ni 145 -- Ni 171                 0.06        2.67100
             Al 32 -- Al 49                  0.25        2.67143
             Al 17 -- Ni 61                  0.14        2.67258
            Ni 101 -- Ni 102                 0.05        2.67575
             Al 70 -- Ni 156                 0.11        2.67938
             Al 21 -- Al 24                  0.21        2.67997
             Al 21 -- Al 33                  0.22        2.68145
             Al 38 -- Ni 104                 0.12        2.68184
            Ni 50  -- Ni 51                  0.02        2.68198
             Al 22 -- Al 28                  0.28        2.68331
             Al 34 -- Al 37                  0.19        2.68370
             Al 51 -- Ni 7                   0.14        2.68699
            Ni 116 -- Ni 118                 0.09        2.68716
             Al 5  -- Ni 80                  0.15        2.68838
            Ni 133 -- Ni 170                -0.02        2.69091
            Ni 162 -- Ni 163                 0.04        2.69199
             Al 34 -- Al 52                  0.20        2.69247
             Al 36 -- Ni 115                 0.13        2.69272
             Al 17 -- Al 63                  0.23        2.69346
            Ni 168 -- Ni 169                 0.04        2.69364
             Al 3  -- Al 64                  0.22        2.69511
             Al 45 -- Ni 80                  0.13        2.69543
            Ni 159 -- Ni 172                 0.04        2.70126
            Ni 75  -- Ni 76                  0.05        2.70324
             Al 39 -- Al 58                  0.21        2.70419
             Al 45 -- Al 58                  0.21        2.70479
             Al 6  -- Al 58                  0.21        2.70626
             Al 27 -- Al 28                  0.23        2.70832
             Al 17 -- Al 19                  0.22        2.70961
             Al 9  -- Al 62                  0.23        2.71205
            Ni 70  -- Ni 80                  0.03        2.71308
             Al 6  -- Ni 80                  0.14        2.71568
             Al 25 -- Al 26                  0.21        2.71730
             Al 27 -- Al 30                  0.22        2.71923
            Ni 162 -- Ni 164                 0.05        2.71934
             Al 45 -- Al 62                  0.20        2.72124
            Ni 49  -- Ni 93                  0.04        2.72196
             Al 20 -- Al 50                  0.22        2.72211
             Al 5  -- Al 62                  0.22        2.72211
             Al 11 -- Al 39                  0.20        2.72357
             Al 20 -- Al 23                  0.21        2.72372
             Al 7  -- Ni 90                  0.13        2.72788
             Al 18 -- Al 19                  0.19        2.72861
             Al 11 -- Al 51                  0.22        2.72957
             Al 50 -- Al 61                  0.18        2.73638
             Al 18 -- Al 26                  0.20        2.73967
             Al 41 -- Al 71                  0.19        2.74214
             Al 31 -- Al 38                  0.22        2.74291
             Al 42 -- Al 43                  0.19        2.74645
             Al 16 -- Al 24                  0.17        2.74781
             Al 4  -- Al 24                  0.18        2.74939
             Al 40 -- Al 43                  0.19        2.74980
             Al 52 -- Al 53                  0.18        2.75397
             Al 36 -- Ni 118                 0.12        2.75475
             Al 69 -- Al 71                  0.18        2.75485
             Al 29 -- Al 70                  0.19        2.75668
             Al 42 -- Al 60                  0.23        2.75758
             Al 10 -- Al 58                  0.19        2.76806
             Al 37 -- Al 53                  0.16        2.77241
             Al 40 -- Al 70                  0.19        2.77672
             Al 34 -- Al 53                  0.16        2.77857
             Al 20 -- Al 61                  0.17        2.78061
             Al 8  -- Al 47                  0.19        2.78519
             Al 29 -- Al 71                  0.17        2.78572
             Al 4  -- Al 68                  0.16        2.78764
             Al 66 -- Al 67                  0.18        2.78987
             Al 16 -- Al 33                  0.16        2.79162
             Al 51 -- Ni 6                   0.12        2.79930
             Al 7  -- Al 51                  0.20        2.80056
             Al 31 -- Al 44                  0.16        2.80092
             Al 42 -- Al 55                  0.18        2.80172
             Al 56 -- Al 57                  0.16        2.80513
             Al 7  -- Al 64                  0.16        2.81270
             Al 29 -- Al 69                  0.15        2.82396
             Al 10 -- Al 45                  0.14        2.84355
             Al 9  -- Al 45                  0.13        2.84441
             Al 43 -- Al 59                  0.15        2.85304
             Al 55 -- Al 59                  0.16        2.85445
             Al 10 -- Al 39                  0.14        2.87096
             Al 59 -- Al 60                  0.16        2.89215
             Al 57 -- Al 72                  0.12        2.90301
             Al 55 -- Al 60                  0.11        2.93217
             Al 42 -- Al 59                  0.13        2.93729
======================================================================
 

Writing analysis data to castep.castep_bin

Writing model to castep.check
 
 A BibTeX formatted list of references used in this run has been written to 
 castep.bib
 
Initialisation time =     23.92 s
Calculation time    =  15958.92 s
Finalisation time   =      8.13 s
Total time          =  15990.97 s
Peak Memory Use     = 3940448 kB
 
Overall parallel efficiency rating: Satisfactory (65%)
 
Data was distributed by:-
G-vector (128-way); efficiency rating: Satisfactory (66%)
