 +-------------------------------------------------+
 |                                                 |
 |      CCC   AA    SSS  TTTTT  EEEEE  PPPP        |
 |     C     A  A  S       T    E      P   P       |
 |     C     AAAA   SS     T    EEE    PPPP        |
 |     C     A  A     S    T    E      P           |
 |      CCC  A  A  SSS     T    EEEEE  P           |
 |                                                 |
 +-------------------------------------------------+
 |                                                 |
 | Welcome to Academic Release CASTEP version 20.11|          
 | Ab Initio Total Energy Program                  |
 |                                                 |
 | Authors:                                        |
 | M. Segall, M. Probert, C. Pickard, P. Hasnip,   |
 | S. Clark, K. Refson, J. R. Yates, M. Payne      |
 |                                                 |
 | Contributors:                                   |
 | P. Lindan, P. Haynes, J. White, V. Milman,      |
 | N. Govind, M. Gibson, P. Tulip, V. Cocula,      |
 | B. Montanari, D. Quigley, M. Glover,            |
 | L. Bernasconi, A. Perlov, M. Plummer,           |
 | E. McNellis, J. Meyer, J. Gale, D. Jochym       |
 | J. Aarons, B. Walker, R. Gillen, D. Jones       |
 | T. Green, I. J. Bush, C. J. Armstrong,          |
 | E. J. Higgins, E. L. Brown, M. S. McFly,        |
 | J. Wilkins, B-C. Shih, P. J. P. Byrne,          |
 | R. J. Maurer, J. C. Womack, J. Dziedzic,        |
 | J. R. Kermode, A. Bartok-Partay                 |
 |                                                 |
 | Copyright (c) 2000 - 2020                       |
 |                                                 |
 |     Distributed under license from Cambridge    |
 |     Enterprise for academic use only.           |
 |                                                 |
 | Please cite                                     |
 |                                                 |
 |     "First principles methods using CASTEP"     |
 |                                                 |
 |         Zeitschrift fuer Kristallographie       |
 |           220(5-6) pp. 567-570 (2005)           |
 |                                                 |
 | S. J. Clark, M. D. Segall, C. J. Pickard,       |
 | P. J. Hasnip, M. J. Probert, K. Refson,         |
 | M. C. Payne                                     |
 |                                                 |
 |       in all publications arising from          |
 |              your use of CASTEP                 |
 |                                                 |
 +-------------------------------------------------+
 |                                                 |
 |              http://www.castep.org              |
 |                                                 |
 +-------------------------------------------------+
 
 
 
 Compiled for linux_x86_64_ifort on Wed, 25 Aug 2021 18:50:38 +0100
 from code version e772bf432+  HEAD  Sat Apr 3 17:41:32 2021 +0100
 Compiler: Intel Fortran 19.0.5.281; Optimisation: fast
 MATHLIBS: Intel MKL(2019.0.5) (LAPACK version 3.7.0)
 FFT Lib : mkl
 Fundamental constants values: CODATA 2014
 
 Run started: Wed, 08 Mar 2023 15:28:47 +0000
 
 Atomic calculation performed for Al: 1s2 2s2 2p6 3s2 3p1
 
 Converged in 52 iterations to an ae energy of -6606.982 eV
 
   ============================================================                
   | Pseudopotential Report - Date of generation  8-03-2023   |                
   ------------------------------------------------------------                
   | Element: Al Ionic charge:  3.00 Level of theory: RPBE    |                
   | Atomic Solver: Koelling-Harmon                           |                
   |                                                          |                
   |               Reference Electronic Structure             |                
   |         Orbital         Occupation         Energy        |                
   |            3s              2.000           -0.284        |                
   |            3p              1.000           -0.100        |                
   |                                                          |                
   |                 Pseudopotential Definition               |                
   |        Beta     l      e      Rc     scheme   norm       |                
   |          1      0   -0.284   2.192     qc      0         |                
   |          2      0    0.250   2.192     qc      0         |                
   |          3      1   -0.100   2.192     qc      0         |                
   |          4      1    0.250   2.192     qc      0         |                
   |          5      2    0.000   2.000     qc      0         |                
   |          6      2    0.250   2.000     qc      0         |                
   |         loc     3    0.000   2.192     pn      0         |                
   |                                                          |                
   | Augmentation charge Rinner = 1.398                       |                
   | Partial core correction Rc = 1.398                       |                
   ------------------------------------------------------------                
   | "3|2.2|2.2|1.4|4|5|5|30:31:32U2U2"                       |                
   ------------------------------------------------------------                
   |      Author: Chris J. Pickard, Cambridge University      |                
   ============================================================                
 
 Atomic calculation performed for Ni: 1s2 2s2 2p6 3s2 3p6 3d8 4s2
 
 Converged in 109 iterations to an ae energy of -41381.414 eV
 
   ============================================================                
   | Pseudopotential Report - Date of generation  8-03-2023   |                
   ------------------------------------------------------------                
   | Element: Ni Ionic charge: 10.00 Level of theory: RPBE    |                
   | Atomic Solver: Koelling-Harmon                           |                
   |                                                          |                
   |               Reference Electronic Structure             |                
   |         Orbital         Occupation         Energy        |                
   |            3d              8.000           -0.324        |                
   |            4s              2.000           -0.204        |                
   |                                                          |                
   |                 Pseudopotential Definition               |                
   |        Beta     l      e      Rc     scheme   norm       |                
   |          1      0   -0.204   2.401     qc      0         |                
   |          2      0    0.250   2.401     qc      0         |                
   |          3      1    0.000   2.401     qc      0         |                
   |          4      1    0.250   2.401     qc      0         |                
   |          5      2   -0.324   1.999     qc      0         |                
   |          6      2    0.250   1.999     qc      0         |                
   |         loc     3    0.000   2.401     pn      0         |                
   |                                                          |                
   | Augmentation charge Rinner = 1.001                       |                
   | Partial core correction Rc = 1.001                       |                
   ------------------------------------------------------------                
   | "3|2.4|2.4|1.0|8|9|10|40:41:32U2U2(qc=5.5)"              |                
   ------------------------------------------------------------                
   |      Author: Chris J. Pickard, Cambridge University      |                
   ============================================================                
 
 Pseudo atomic calculation performed for Al 3s2 3p1
 
 Converged in 13 iterations to a total energy of -107.6592 eV
 
 Pseudo atomic calculation performed for Ni 3d8 4s2
 
 Converged in 41 iterations to a total energy of -1369.7891 eV
 Calculation parallelised over 48 processes.
 Data is distributed by G-vector(48-way)

 ************************************ Title ************************************
 

 ***************************** General Parameters ******************************
  
 output verbosity                               : normal  (1)
 write checkpoint data to                       : castep.check
 type of calculation                            : geometry optimization
 stress calculation                             : off
 density difference calculation                 : off
 electron localisation func (ELF) calculation   : off
 Hirshfeld analysis                             : off
 molecular orbital projected DOS                : off
 deltaSCF calculation                           : off
 unlimited duration calculation
 timing information                             : on
 memory usage estimate                          : on
 write extra output files                       : on
 write final potential to formatted file        : off
 write final density to formatted file          : off
 write BibTeX reference list                    : on
 write OTFG pseudopotential files               : on
 write electrostatic potential file             : on
 write bands file                               : on
 checkpoint writing                             : both castep_bin and check files
  
 output         length unit                     : A
 output           mass unit                     : amu
 output           time unit                     : ps
 output         charge unit                     : e
 output           spin unit                     : hbar/2
 output         energy unit                     : eV
 output          force unit                     : eV/A
 output       velocity unit                     : A/ps
 output       pressure unit                     : GPa
 output     inv_length unit                     : 1/A
 output      frequency unit                     : cm-1
 output force constant unit                     : eV/A**2
 output         volume unit                     : A**3
 output   IR intensity unit                     : (D/A)**2/amu
 output         dipole unit                     : D
 output         efield unit                     : eV/A/e
 output        entropy unit                     : J/mol/K
 output    efield chi2 unit                     : pm/V
  
 wavefunctions paging                           : none
 random number generator seed                   : randomised (152847814)
 data distribution                              : optimal for this architecture
 optimization strategy                          : maximize speed(+++)

 *********************** Exchange-Correlation Parameters ***********************
  
 using functional                               : revised Perdew Burke Ernzerhof
 relativistic treatment                         : Koelling-Harmon
 DFT+D: Semi-empirical dispersion correction    : off

 ************************* Pseudopotential Parameters **************************
  
 pseudopotential representation                 : reciprocal space
 <beta|phi> representation                      : reciprocal space
 spin-orbit coupling                            : off

 **************************** Basis Set Parameters *****************************
  
 plane wave basis set cut-off                   :   900.0000   eV
 size of standard grid                          :     1.7500
 size of   fine   gmax                          :    26.8966   1/A
 finite basis set correction                    : none

 **************************** Electronic Parameters ****************************
  
 number of  electrons                           :  2109.    
 net charge of system                           :  0.000    
 net spin   of system                           :  1.000    
 number of  up  spins                           :  1055.    
 number of down spins                           :  1054.    
 treating system as spin-polarized
 number of bands                                :       1167

 ********************* Electronic Minimization Parameters **********************
  
 Method: Treating system as metallic with density mixing treatment of electrons,
         and number of  SD  steps               :          1
         and number of  CG  steps               :          4
  
 total energy / atom convergence tol.           : 0.1000E-05   eV
 eigen-energy convergence tolerance             : 0.2185E-06   eV
 max force / atom convergence tol.              : ignored
 convergence tolerance window                   :          3   cycles
 max. number of SCF cycles                      :        200
 number of fixed-spin iterations                :         10
 smearing scheme                                : Gaussian
 smearing width                                 : 0.2000       eV
 Fermi energy convergence tolerance             : 0.2721E-13   eV
 periodic dipole correction                     : NONE
 periodically dump wavefunctions to             : castep.wvfn
 dump wavefunctions every                       :          1   SCF cycles

 ************************** Density Mixing Parameters **************************
  
 density-mixing scheme                          : Pulay
 max. length of mixing history                  :         20
 charge density mixing amplitude                : 0.8000    
   spin density mixing amplitude                :  2.000    
 cut-off energy for mixing                      :  900.0       eV

 *********************** Population Analysis Parameters ************************
  
 Population analysis with cutoff                :  3.000       A
 Population analysis output                     : summary and pdos components

 ********************** Geometry Optimization Parameters ***********************
  
 optimization method                            : LBFGS
 max. no. of LBFGS updates                      : unbounded
 variable cell method                           : fixed basis quality
 max. number of steps                           :         30
 estimated bulk modulus                         :  500.0       GPa
 estimated <frequency>                          :  1668.       cm-1
 geom line minimiser                            : on
 with line minimiser tolerance                  :     0.4000
  with spin fully able to relax for all steps
 total energy convergence tolerance             : 0.2000E-04   eV/atom
        max ionic |force| tolerance             : 0.5000E-01   eV/A
 max ionic |displacement| tolerance             : 0.1000E-02   A
   max |stress component| tolerance             : 0.1000       GPa
 convergence tolerance window                   :          2   steps
 backup results every                           :          5   steps
 write geom trajectory file                     : on

 *******************************************************************************
  
 
                           -------------------------------
                                      Unit Cell
                           -------------------------------
        Real Lattice(A)                      Reciprocal Lattice(1/A)
    14.4648280     0.0000000     0.0000000        0.434376773   0.000000000   0.000000000
     0.0000000    14.4648280     0.0000000        0.000000000   0.434376773   0.000000000
     0.0000000     0.0000000    14.4648280        0.000000000   0.000000000   0.434376773
 
                       Lattice parameters(A)       Cell Angles
                    a =     14.464828          alpha =   90.000000
                    b =     14.464828          beta  =   90.000000
                    c =     14.464828          gamma =   90.000000
 
                       Current cell volume =          3026.494030       A**3
                                   density =             4.285146   AMU/A**3
                                           =             7.115653     g/cm^3
 
                           -------------------------------
                                     Cell Contents
                           -------------------------------
                         Total number of ions in cell =  255
                      Total number of species in cell =    2
                        Max number of any one species =  192
 
            xxxxxxxxxxxxxxxxxxxxxxxxxxxxxxxxxxxxxxxxxxxxxxxxxxxxxxxxxxxx
            x  Element    Atom        Fractional coordinates of atoms  x
            x            Number           u          v          w      x
            x----------------------------------------------------------x
            x  Al           1         0.570703   0.307413   0.064468   x 
            x  Al           2         0.818246   0.309209   0.063216   x 
            x  Al           3         0.569890   0.559265   0.065837   x 
            x  Al           4         0.817592   0.558239   0.063655   x 
            x  Al           5         0.575314   0.809633   0.060343   x 
            x  Al           6         0.819096   0.807798   0.062786   x 
            x  Al           7         0.572249   0.058445   0.063467   x 
            x  Al           8         0.819964   0.059146   0.062438   x 
            x  Al           9         0.569608   0.305958   0.312689   x 
            x  Al          10         0.817808   0.308657   0.313937   x 
            x  Al          11         0.573353   0.554874   0.311891   x 
            x  Al          12         0.816691   0.558098   0.313976   x 
            x  Al          13         0.577335   0.814382   0.313143   x 
            x  Al          14         0.819188   0.808326   0.313554   x 
            x  Al          15         0.574365   0.057120   0.309368   x 
            x  Al          16         0.819965   0.058970   0.313361   x 
            x  Al          17         0.570285   0.306335   0.562134   x 
            x  Al          18         0.817074   0.309540   0.563354   x 
            x  Al          19         0.567346   0.559716   0.561507   x 
            x  Al          20         0.816089   0.558299   0.563092   x 
            x  Al          21         0.574656   0.809402   0.566240   x 
            x  Al          22         0.818572   0.807348   0.564023   x 
            x  Al          23         0.577134   0.057431   0.569283   x 
            x  Al          24         0.819623   0.058861   0.564174   x 
            x  Al          25         0.571632   0.308631   0.813988   x 
            x  Al          26         0.817116   0.310220   0.813219   x 
            x  Al          27         0.568938   0.558950   0.814874   x 
            x  Al          28         0.816562   0.557895   0.813050   x 
            x  Al          29         0.570705   0.808502   0.814479   x 
            x  Al          30         0.819223   0.807162   0.813540   x 
            x  Al          31         0.572556   0.057946   0.813108   x 
            x  Al          32         0.820032   0.059090   0.813976   x 
            x  Al          33         0.328672   0.182471   0.934412   x 
            x  Al          34         0.056309   0.057831   0.808042   x 
            x  Al          35         0.192983   0.190311   0.805086   x 
            x  Al          36         0.321477   0.935465   0.939669   x 
            x  Al          37         0.192684   0.929544   0.805063   x 
            x  Al          38         0.318583   0.689973   0.944272   x 
            x  Al          39         0.074755   0.687580   0.929598   x 
            x  Al          40         0.198678   0.188620   0.572711   x 
            x  Al          41         0.067331   0.805451   0.565934   x 
            x  Al          42         0.326102   0.684971   0.688961   x 
            x  Al          43         0.194379   0.667447   0.563673   x 
            x  Al          44         0.337249   0.428741   0.680787   x 
            x  Al          45         0.328540   0.555022   0.819996   x 
            x  Al          46         0.192227   0.432862   0.556881   x 
            x  Al          47         0.063810   0.435406   0.688538   x 
            x  Al          48         0.317536   0.060380   0.312322   x 
            x  Al          49         0.440418   0.057057   0.445062   x 
            x  Al          50         0.185863   0.054901   0.185586   x 
            x  Al          51         0.068507   0.185172   0.441821   x 
            x  Al          52         0.433477   0.814667   0.439796   x 
            x  Al          53         0.070941   0.945099   0.442379   x 
            x  Al          54         0.201473   0.808508   0.432188   x 
            x  Al          55         0.432148   0.677786   0.310315   x 
            x  Al          56         0.334540   0.430829   0.439278   x 
            x  Al          57         0.188508   0.425174   0.313521   x 
            x  Al          58         0.187105   0.186343   0.057692   x 
            x  Al          59         0.434355   0.816939   0.185511   x 
            x  Al          60         0.191722   0.811550   0.187887   x 
            x  Al          61         0.191587   0.426146   0.055728   x 
            x  Al          62         0.193523   0.427350   0.821490   x 
            x  Al          63         0.188910   0.565162   0.184531   x 
            x  Ni           1         0.568083   0.431580   0.187877   x 
            x  Ni           2         0.694188   0.307833   0.188618   x 
            x  Ni           3         0.693652   0.433457   0.064140   x 
            x  Ni           4         0.817441   0.433623   0.189090   x 
            x  Ni           5         0.942281   0.309352   0.188497   x 
            x  Ni           6         0.942026   0.434081   0.063304   x 
            x  Ni           7         0.564537   0.687879   0.191553   x 
            x  Ni           8         0.693033   0.558932   0.188584   x 
            x  Ni           9         0.693540   0.683085   0.064433   x 
            x  Ni          10         0.818573   0.683031   0.188583   x 
            x  Ni          11         0.941935   0.558343   0.188693   x 
            x  Ni          12         0.942516   0.682760   0.063188   x 
            x  Ni          13         0.569270   0.932615   0.186042   x 
            x  Ni          14         0.695880   0.808933   0.187463   x 
            x  Ni          15         0.696472   0.934210   0.062176   x 
            x  Ni          16         0.820189   0.933580   0.187592   x 
            x  Ni          17         0.942726   0.807886   0.188146   x 
            x  Ni          18         0.943291   0.933129   0.062745   x 
            x  Ni          19         0.569017   0.182490   0.187737   x 
            x  Ni          20         0.696291   0.058331   0.186927   x 
            x  Ni          21         0.694844   0.183634   0.062928   x 
            x  Ni          22         0.819209   0.183991   0.188065   x 
            x  Ni          23         0.943201   0.058865   0.187984   x 
            x  Ni          24         0.943036   0.184552   0.062970   x 
            x  Ni          25         0.562014   0.432036   0.441274   x 
            x  Ni          26         0.691777   0.307450   0.438027   x 
            x  Ni          27         0.692012   0.431826   0.314584   x 
            x  Ni          28         0.816722   0.433648   0.438724   x 
            x  Ni          29         0.942210   0.309353   0.438831   x 
            x  Ni          30         0.941757   0.433965   0.313827   x 
            x  Ni          31         0.563819   0.688617   0.433554   x 
            x  Ni          32         0.690685   0.558878   0.438131   x 
            x  Ni          33         0.693687   0.683938   0.313272   x 
            x  Ni          34         0.817654   0.682953   0.438637   x 
            x  Ni          35         0.941797   0.558438   0.438701   x 
            x  Ni          36         0.942235   0.682953   0.313699   x 
            x  Ni          37         0.568148   0.934984   0.440404   x 
            x  Ni          38         0.694875   0.809440   0.439112   x 
            x  Ni          39         0.697451   0.934904   0.313148   x 
            x  Ni          40         0.820067   0.933477   0.439062   x 
            x  Ni          41         0.942641   0.807810   0.438871   x 
            x  Ni          42         0.942989   0.933265   0.313443   x 
            x  Ni          43         0.568959   0.177791   0.438275   x 
            x  Ni          44         0.695429   0.057656   0.438959   x 
            x  Ni          45         0.694965   0.182751   0.313167   x 
            x  Ni          46         0.818724   0.183905   0.438657   x 
            x  Ni          47         0.943249   0.058814   0.438930   x 
            x  Ni          48         0.942747   0.184222   0.313551   x 
            x  Ni          49         0.563624   0.433791   0.683283   x 
            x  Ni          50         0.692609   0.309597   0.688199   x 
            x  Ni          51         0.690944   0.433686   0.562340   x 
            x  Ni          52         0.816565   0.434356   0.687929   x 
            x  Ni          53         0.942358   0.309923   0.688357   x 
            x  Ni          54         0.941925   0.434236   0.563505   x 
            x  Ni          55         0.567432   0.684533   0.689587   x 
            x  Ni          56         0.690520   0.558327   0.687821   x 
            x  Ni          57         0.691775   0.682958   0.562495   x 
            x  Ni          58         0.817360   0.682051   0.688196   x 
            x  Ni          59         0.942032   0.558362   0.688193   x 
            x  Ni          60         0.942248   0.682712   0.563635   x 
            x  Ni          61         0.570509   0.932733   0.690715   x 
            x  Ni          62         0.695253   0.807629   0.689947   x 
            x  Ni          63         0.696981   0.933155   0.564836   x 
            x  Ni          64         0.820089   0.932779   0.689384   x 
            x  Ni          65         0.942844   0.807338   0.688589   x 
            x  Ni          66         0.943111   0.933038   0.564042   x 
            x  Ni          67         0.571305   0.182277   0.689649   x 
            x  Ni          68         0.697557   0.058304   0.690557   x 
            x  Ni          69         0.695486   0.183730   0.563795   x 
            x  Ni          70         0.818896   0.185015   0.688977   x 
            x  Ni          71         0.943173   0.058929   0.688753   x 
            x  Ni          72         0.942573   0.184494   0.563797   x 
            x  Ni          73         0.568010   0.433795   0.941155   x 
            x  Ni          74         0.693259   0.308978   0.938855   x 
            x  Ni          75         0.690438   0.434404   0.812619   x 
            x  Ni          76         0.817123   0.434071   0.937978   x 
            x  Ni          77         0.942555   0.309804   0.937916   x 
            x  Ni          78         0.942131   0.434285   0.813021   x 
            x  Ni          79         0.568190   0.684295   0.939324   x 
            x  Ni          80         0.692462   0.558435   0.939287   x 
            x  Ni          81         0.693186   0.682534   0.813759   x 
            x  Ni          82         0.818068   0.682288   0.938424   x 
            x  Ni          83         0.942220   0.558270   0.938122   x 
            x  Ni          84         0.942403   0.682374   0.813203   x 
            x  Ni          85         0.569600   0.934266   0.937546   x 
            x  Ni          86         0.695693   0.808113   0.937589   x 
            x  Ni          87         0.696001   0.933038   0.814109   x 
            x  Ni          88         0.819992   0.933420   0.937907   x 
            x  Ni          89         0.942900   0.807525   0.938089   x 
            x  Ni          90         0.943641   0.933003   0.813410   x 
            x  Ni          91         0.568737   0.182413   0.938496   x 
            x  Ni          92         0.695330   0.058891   0.937968   x 
            x  Ni          93         0.694898   0.184231   0.814154   x 
            x  Ni          94         0.819133   0.184666   0.938122   x 
            x  Ni          95         0.943691   0.058987   0.937930   x 
            x  Ni          96         0.943073   0.184934   0.813256   x 
            x  Ni          97         0.071319   0.430808   0.184377   x 
            x  Ni          98         0.191717   0.305948   0.185084   x 
            x  Ni          99         0.064552   0.305678   0.059091   x 
            x  Ni         100         0.312290   0.432131   0.185409   x 
            x  Ni         101         0.442912   0.305784   0.188491   x 
            x  Ni         102         0.317117   0.557907   0.062251   x 
            x  Ni         103         0.320127   0.304294   0.061909   x 
            x  Ni         104         0.065606   0.560652   0.056936   x 
            x  Ni         105         0.065441   0.687320   0.187120   x 
            x  Ni         106         0.314951   0.684745   0.183929   x 
            x  Ni         107         0.442367   0.558222   0.187177   x 
            x  Ni         108         0.444612   0.686768   0.066205   x 
            x  Ni         109         0.190062   0.686605   0.061272   x 
            x  Ni         110         0.065978   0.934453   0.186200   x 
            x  Ni         111         0.316478   0.813057   0.062789   x 
            x  Ni         112         0.189882   0.936595   0.058190   x 
            x  Ni         113         0.313681   0.938973   0.185443   x 
            x  Ni         114         0.318271   0.811198   0.310116   x 
            x  Ni         115         0.444844   0.936017   0.062485   x 
            x  Ni         116         0.065542   0.181142   0.184606   x 
            x  Ni         117         0.315612   0.061877   0.059999   x 
            x  Ni         118         0.066721   0.058578   0.056331   x 
            x  Ni         119         0.314680   0.179894   0.186200   x 
            x  Ni         120         0.443283   0.057078   0.187919   x 
            x  Ni         121         0.445094   0.181868   0.063901   x 
            x  Ni         122         0.192976   0.061184   0.928632   x 
            x  Ni         123         0.065427   0.430632   0.438190   x 
            x  Ni         124         0.194666   0.307061   0.439384   x 
            x  Ni         125         0.063971   0.304270   0.312354   x 
            x  Ni         126         0.447645   0.303073   0.436716   x 
            x  Ni         127         0.443904   0.432495   0.309818   x 
            x  Ni         128         0.319995   0.306570   0.312176   x 
            x  Ni         129         0.071866   0.683640   0.440497   x 
            x  Ni         130         0.194029   0.552362   0.434328   x 
            x  Ni         131         0.192447   0.682986   0.311577   x 
            x  Ni         132         0.066931   0.557822   0.311801   x 
            x  Ni         133         0.316429   0.680137   0.438467   x 
            x  Ni         134         0.445790   0.560131   0.434346   x 
            x  Ni         135         0.314489   0.552762   0.309644   x 
            x  Ni         136         0.066967   0.060706   0.313897   x 
            x  Ni         137         0.070336   0.813699   0.316909   x 
            x  Ni         138         0.315048   0.937892   0.440237   x 
            x  Ni         139         0.444063   0.936399   0.314237   x 
            x  Ni         140         0.191261   0.937616   0.313586   x 
            x  Ni         141         0.194724   0.063940   0.441484   x 
            x  Ni         142         0.191119   0.184134   0.311581   x 
            x  Ni         143         0.318010   0.182921   0.439747   x 
            x  Ni         144         0.443768   0.178615   0.313282   x 
            x  Ni         145         0.065344   0.309463   0.564913   x 
            x  Ni         146         0.450575   0.305308   0.686996   x 
            x  Ni         147         0.325581   0.310444   0.561714   x 
            x  Ni         148         0.067109   0.678450   0.688912   x 
            x  Ni         149         0.064707   0.555901   0.564444   x 
            x  Ni         150         0.200300   0.547760   0.692020   x 
            x  Ni         151         0.446828   0.560304   0.688538   x 
            x  Ni         152         0.445059   0.685620   0.560667   x 
            x  Ni         153         0.325759   0.552979   0.562966   x 
            x  Ni         154         0.065127   0.931753   0.686565   x 
            x  Ni         155         0.193442   0.802502   0.684664   x 
            x  Ni         156         0.191677   0.933027   0.565422   x 
            x  Ni         157         0.318346   0.931750   0.688675   x 
            x  Ni         158         0.445856   0.809511   0.687000   x 
            x  Ni         159         0.444356   0.933493   0.565331   x 
            x  Ni         160         0.316068   0.806009   0.563817   x 
            x  Ni         161         0.065602   0.186309   0.686911   x 
            x  Ni         162         0.191401   0.059261   0.691306   x 
            x  Ni         163         0.068524   0.062366   0.566304   x 
            x  Ni         164         0.320896   0.186006   0.690273   x 
            x  Ni         165         0.446303   0.057523   0.687646   x 
            x  Ni         166         0.445734   0.181000   0.564577   x 
            x  Ni         167         0.318103   0.059596   0.568007   x 
            x  Ni         168         0.066438   0.431439   0.935034   x 
            x  Ni         169         0.194917   0.302887   0.935285   x 
            x  Ni         170         0.195590   0.318246   0.687290   x 
            x  Ni         171         0.063917   0.309023   0.808685   x 
            x  Ni         172         0.320756   0.431447   0.939481   x 
            x  Ni         173         0.447877   0.307719   0.939514   x 
            x  Ni         174         0.448081   0.432539   0.814664   x 
            x  Ni         175         0.324242   0.309982   0.812604   x 
            x  Ni         176         0.067215   0.810938   0.058602   x 
            x  Ni         177         0.194459   0.558457   0.937834   x 
            x  Ni         178         0.199942   0.680077   0.810567   x 
            x  Ni         179         0.066451   0.557305   0.812439   x 
            x  Ni         180         0.442672   0.431832   0.065921   x 
            x  Ni         181         0.443714   0.684740   0.816364   x 
            x  Ni         182         0.445395   0.559966   0.943753   x 
            x  Ni         183         0.068180   0.932517   0.930559   x 
            x  Ni         184         0.194822   0.811524   0.934717   x 
            x  Ni         185         0.066731   0.807094   0.808067   x 
            x  Ni         186         0.445029   0.810625   0.940792   x 
            x  Ni         187         0.444836   0.933846   0.813077   x 
            x  Ni         188         0.321261   0.809443   0.813368   x 
            x  Ni         189         0.066439   0.183160   0.930667   x 
            x  Ni         190         0.320332   0.057864   0.811389   x 
            x  Ni         191         0.446347   0.057550   0.937918   x 
            x  Ni         192         0.447067   0.182448   0.811953   x 
            xxxxxxxxxxxxxxxxxxxxxxxxxxxxxxxxxxxxxxxxxxxxxxxxxxxxxxxxxxxx
 
 
                         No user defined ionic velocities
 
                           -------------------------------
                                   Details of Species
                           -------------------------------
 
                               Mass of species in AMU
                                    Al   26.9815400
                                    Ni   58.6934000
 
                          Electric Quadrupole Moment (Barn)
                                    Al    0.1466000 Isotope 27
                                    Ni    0.1620000 Isotope 61
 
                          Files used for pseudopotentials:
                                    Al 3|2.2|2.2|1.4|4|5|5|30:31:32U2U2
                                    Ni 3|2.4|2.4|1.0|8|9|10|40:41:32U2U2(qc=5.5)
 
                           -------------------------------
                              k-Points For BZ Sampling
                           -------------------------------
                       MP grid size for SCF calculation is  1  1  1
                            with an offset of   0.000  0.000  0.000
                       Number of kpoints used =             1
 
                           -------------------------------
                               Symmetry and Constraints
                           -------------------------------
 
                      Maximum deviation from symmetry =  0.00000         ANG
 
                      Number of symmetry operations   =           1
                      Number of ionic constraints     =           3
                      Point group of crystal =     1: C1, 1, 1
                      Space group of crystal =     1: P1, P 1
 
             Set iprint > 1 for details on symmetry rotations/translations
 
                         Centre of mass is constrained
             Set iprint > 1 for details of linear ionic constraints
 
                         Number of cell constraints= 6
                         Cell constraints are:  0 0 0 0 0 0
 
                         External pressure/stress (GPa)
                          0.00000   0.00000   0.00000
                                    0.00000   0.00000
                                              0.00000
  
+---------------- MEMORY AND SCRATCH DISK ESTIMATES PER PROCESS --------------+
|                                                     Memory          Disk    |
| Baseline code, static data and system overhead      622.0 MB         0.0 MB |
| BLAS internal memory storage                          0.0 MB         0.0 MB |
| Model and support data                              741.5 MB         0.0 MB |
| Electronic energy minimisation requirements         236.0 MB         0.0 MB |
| Force calculation requirements                        7.9 MB         0.0 MB |
|                                               ----------------------------- |
| Approx. total storage required per process         1599.5 MB         0.0 MB |
|                                                                             |
| Requirements will fluctuate during execution and may exceed these estimates |
+-----------------------------------------------------------------------------+
Calculating total energy with cut-off of  900.000 eV.
------------------------------------------------------------------------ <-- SCF
SCF loop      Energy           Fermi           Energy gain       Timer   <-- SCF
                               energy          per atom          (sec)   <-- SCF
------------------------------------------------------------------------ <-- SCF
Initial  -2.19121469E+005  0.00000000E+000                        20.40  <-- SCF
      1  -2.63676525E+005  7.13118997E+000   1.74725708E+002     107.77  <-- SCF
      2  -2.70647960E+005  3.66302333E+000   2.73389636E+001     192.62  <-- SCF
      3  -2.71370180E+005  3.53283353E+000   2.83223305E+000     278.60  <-- SCF
      4  -2.71426418E+005  3.65377473E+000   2.20539853E-001     358.24  <-- SCF
      5  -2.71710874E+005  6.62253794E+000   1.11551565E+000     453.74  <-- SCF
      6  -2.71508788E+005  5.53794968E+000  -7.92493440E-001     564.91  <-- SCF
      7  -2.71402877E+005  4.53634645E+000  -4.15339835E-001     666.39  <-- SCF
      8  -2.71386697E+005  4.41438410E+000  -6.34479929E-002     771.29  <-- SCF
      9  -2.71397722E+005  4.48546008E+000   4.32348970E-002     869.99  <-- SCF
     10  -2.71395079E+005  4.43901153E+000  -1.03651120E-002     971.21  <-- SCF
     11  -2.72236076E+005  6.12676643E+000   3.29802884E+000    1073.59  <-- SCF
     12  -2.72247511E+005  6.08307147E+000   4.48407403E-002    1160.45  <-- SCF
     13  -2.71486247E+005  4.79307732E+000  -2.98535012E+000    1293.55  <-- SCF
     14  -2.71562908E+005  4.79321891E+000   3.00632669E-001    1379.48  <-- SCF
     15  -2.71433648E+005  4.32098187E+000  -5.06900579E-001    1481.56  <-- SCF
     16  -2.71398442E+005  4.23035821E+000  -1.38064243E-001    1583.11  <-- SCF
     17  -2.71393658E+005  4.29500597E+000  -1.87619524E-002    1676.79  <-- SCF
     18  -2.71390305E+005  4.34665242E+000  -1.31464520E-002    1771.59  <-- SCF
     19  -2.71387686E+005  4.37053766E+000  -1.02704675E-002    1868.69  <-- SCF
     20  -2.71386216E+005  4.36647844E+000  -5.76716633E-003    1964.81  <-- SCF
     21  -2.71385833E+005  4.35626856E+000  -1.50166407E-003    2059.22  <-- SCF
     22  -2.71385690E+005  4.35116845E+000  -5.59590329E-004    2154.14  <-- SCF
     23  -2.71385582E+005  4.35515641E+000  -4.24215276E-004    2248.76  <-- SCF
     24  -2.71385492E+005  4.36247080E+000  -3.50763936E-004    2343.42  <-- SCF
     25  -2.71385420E+005  4.36764324E+000  -2.82491788E-004    2438.58  <-- SCF
     26  -2.71385271E+005  4.37207858E+000  -5.87375524E-004    2535.12  <-- SCF
     27  -2.71385175E+005  4.37452997E+000  -3.75987455E-004    2631.35  <-- SCF
     28  -2.71385161E+005  4.37534500E+000  -5.38889575E-005    2729.17  <-- SCF
     29  -2.71385149E+005  4.37702242E+000  -4.54812393E-005    2825.56  <-- SCF
     30  -2.71385145E+005  4.37759997E+000  -1.56203380E-005    2916.85  <-- SCF
     31  -2.71385144E+005  4.37868422E+000  -5.04629835E-006    3008.54  <-- SCF
     32  -2.71385141E+005  4.37975568E+000  -1.39927248E-005    3101.03  <-- SCF
     33  -2.71385140E+005  4.37986658E+000  -9.69726297E-007    3164.70  <-- SCF
     34  -2.71385140E+005  4.38006529E+000   7.90315751E-007    3231.06  <-- SCF
------------------------------------------------------------------------ <-- SCF
 
Integrated Spin Density     =    0.136592     hbar/2                        
Integrated |Spin Density|   =    0.216442     hbar/2                        
 
Final energy, E             =  -271380.6454085     eV
Final free energy (E-TS)    =  -271385.1404625     eV
(energies not corrected for finite basis set)
 
NB est. 0K energy (E-0.5TS)      =  -271382.8929355     eV
 

Writing analysis data to castep.castep_bin

Writing model to castep.check
 
+---------------- MEMORY AND SCRATCH DISK ESTIMATES PER PROCESS --------------+
|                                                     Memory          Disk    |
| Model and support data                              750.6 MB         0.0 MB |
| Electronic energy minimisation requirements         236.0 MB         0.0 MB |
| Geometry minimisation requirements                  309.4 MB         0.0 MB |
|                                               ----------------------------- |
| Approx. total storage required per process         1296.0 MB         0.0 MB |
|                                                                             |
| Requirements will fluctuate during execution and may exceed these estimates |
+-----------------------------------------------------------------------------+
 
 
 ************************************** Forces **************************************
 *                                                                                  *
 *                           Cartesian components (eV/A)                            *
 * -------------------------------------------------------------------------------- *
 *                         x                    y                    z              *
 *                                                                                  *
 * Al              1     -0.11868             -0.00623             -0.02778         *
 * Al              2      0.04693             -0.02528             -0.00497         *
 * Al              3     -0.10569             -0.02053              0.00863         *
 * Al              4      0.08419             -0.01041              0.00580         *
 * Al              5     -0.08389              0.00058             -0.13424         *
 * Al              6      0.12051              0.02561              0.00544         *
 * Al              7     -0.16044              0.03692             -0.02781         *
 * Al              8      0.07016              0.01717             -0.02543         *
 * Al              9     -0.08878              0.04898             -0.02146         *
 * Al             10      0.06487              0.01161             -0.02688         *
 * Al             11     -0.05700             -0.13336             -0.01543         *
 * Al             12      0.10698              0.00294             -0.01380         *
 * Al             13      0.34875              0.07418             -0.01275         *
 * Al             14      0.05213             -0.04119             -0.03514         *
 * Al             15     -0.02952              0.00890             -0.11264         *
 * Al             16      0.08199              0.03001             -0.02651         *
 * Al             17     -0.20509              0.05521              0.01221         *
 * Al             18      0.05183              0.01604             -0.00673         *
 * Al             19     -0.16323             -0.08201             -0.01301         *
 * Al             20      0.08872              0.00847             -0.01594         *
 * Al             21     -0.02862              0.02852              0.12956         *
 * Al             22      0.11390             -0.00520              0.00058         *
 * Al             23      0.01158              0.00697              0.11807         *
 * Al             24      0.02626             -0.00072             -0.01269         *
 * Al             25     -0.12380             -0.05780              0.01558         *
 * Al             26      0.00614             -0.02394              0.01332         *
 * Al             27     -0.12050             -0.00907              0.02599         *
 * Al             28      0.07182              0.02579              0.00696         *
 * Al             29     -0.15198              0.05080              0.01014         *
 * Al             30      0.05693              0.00466              0.01744         *
 * Al             31     -0.18854              0.02307              0.01391         *
 * Al             32      0.09073             -0.02672              0.03229         *
 * Al             33      0.13623              0.10136              0.12287         *
 * Al             34      0.30875              0.16226              0.29237         *
 * Al             35     -0.03562             -0.00859             -0.07410         *
 * Al             36      0.16389              0.04907              0.21451         *
 * Al             37     -0.05001             -0.29103             -0.04845         *
 * Al             38      0.04832              0.06851              0.19196         *
 * Al             39     -0.56793             -0.28597              0.53497         *
 * Al             40      0.14842             -0.17162             -0.03634         *
 * Al             41     -0.76193             -0.03281              0.59922         *
 * Al             42      0.21482              0.29883             -0.07060         *
 * Al             43     -0.07460             -0.17755             -0.05982         *
 * Al             44      0.20679             -0.15992             -0.22274         *
 * Al             45     -0.04034              0.00628              0.15173         *
 * Al             46     -0.04930              0.09124             -0.12802         *
 * Al             47     -0.62710             -0.08668              0.03430         *
 * Al             48     -0.24092             -0.06942             -0.02826         *
 * Al             49      0.01640              0.16349              0.13532         *
 * Al             50     -0.29626              0.05044             -0.04641         *
 * Al             51     -0.51875             -0.08918             -0.66894         *
 * Al             52     -0.12655              0.06396              0.20035         *
 * Al             53     -0.60679             -0.02698             -0.64752         *
 * Al             54      0.09560             -0.06328             -0.16992         *
 * Al             55     -0.18053             -0.19931             -0.03978         *
 * Al             56      0.24058              0.00512             -0.06538         *
 * Al             57     -0.20300             -0.10885             -0.11875         *
 * Al             58     -0.08701              0.03125              0.13404         *
 * Al             59     -0.00588              0.09055             -0.27442         *
 * Al             60     -0.19297             -0.03201             -0.14425         *
 * Al             61      0.00992              0.04358              0.01142         *
 * Al             62     -0.15837             -0.02154              0.25757         *
 * Al             63     -0.03860              0.11296             -0.00552         *
 * Ni              1     -0.00388              0.05034             -0.04680         *
 * Ni              2      0.00693             -0.00552              0.01446         *
 * Ni              3      0.02556              0.01931              0.01709         *
 * Ni              4      0.09686             -0.01124             -0.00167         *
 * Ni              5      0.18444             -0.03300             -0.04997         *
 * Ni              6      0.16413              0.04425             -0.05363         *
 * Ni              7      0.12025              0.20417              0.30745         *
 * Ni              8      0.02810             -0.01242              0.01559         *
 * Ni              9      0.03880              0.00380             -0.02355         *
 * Ni             10     -0.00912              0.00300              0.02366         *
 * Ni             11      0.37525             -0.05809             -0.06603         *
 * Ni             12      0.22195              0.09982             -0.03270         *
 * Ni             13      0.10055             -0.15397              0.18073         *
 * Ni             14     -0.06008             -0.01258              0.00337         *
 * Ni             15     -0.09162             -0.02471              0.03429         *
 * Ni             16     -0.02315              0.00141             -0.01455         *
 * Ni             17      0.17603              0.11611              0.01022         *
 * Ni             18      0.14692             -0.00566             -0.15234         *
 * Ni             19     -0.00115             -0.00529              0.08557         *
 * Ni             20      0.05405              0.00871              0.00557         *
 * Ni             21     -0.00902             -0.00454             -0.00980         *
 * Ni             22      0.02603              0.00554             -0.02285         *
 * Ni             23      0.20571             -0.00667             -0.04564         *
 * Ni             24      0.06249             -0.13223             -0.13571         *
 * Ni             25      0.22557              0.04941             -0.20947         *
 * Ni             26      0.07676              0.05968              0.02715         *
 * Ni             27      0.07939              0.00034             -0.03188         *
 * Ni             28      0.03340              0.01665             -0.05817         *
 * Ni             29      0.11160              0.06332             -0.00223         *
 * Ni             30      0.25978             -0.06327             -0.11344         *
 * Ni             31      0.14211              0.21108             -0.26611         *
 * Ni             32      0.00352             -0.03169              0.03599         *
 * Ni             33     -0.05345              0.02481              0.00609         *
 * Ni             34     -0.03353             -0.06988             -0.02475         *
 * Ni             35      0.23931             -0.00587             -0.00869         *
 * Ni             36      0.31092              0.09475              0.05421         *
 * Ni             37      0.20881             -0.05089             -0.07176         *
 * Ni             38      0.02678             -0.02856             -0.00100         *
 * Ni             39     -0.07606              0.00042              0.02247         *
 * Ni             40     -0.01798             -0.04027             -0.02271         *
 * Ni             41      0.41177              0.00676             -0.02499         *
 * Ni             42      0.26911              0.06526             -0.05705         *
 * Ni             43      0.08995             -0.04677              0.03037         *
 * Ni             44      0.09348             -0.00732             -0.01015         *
 * Ni             45     -0.03368             -0.01147              0.02659         *
 * Ni             46      0.02208              0.06562             -0.01126         *
 * Ni             47     -0.08019              0.14749              0.10404         *
 * Ni             48     -0.01133             -0.11493             -0.09806         *
 * Ni             49      0.20668             -0.05538              0.12806         *
 * Ni             50      0.00311             -0.02469             -0.02940         *
 * Ni             51     -0.09294              0.01231             -0.00823         *
 * Ni             52      0.08396             -0.01339              0.01133         *
 * Ni             53     -0.08257             -0.22768             -0.08212         *
 * Ni             54     -0.14713             -0.05819             -0.21740         *
 * Ni             55      0.09634              0.00190             -0.15570         *
 * Ni             56      0.01987              0.02612             -0.05035         *
 * Ni             57      0.02129              0.02195              0.01328         *
 * Ni             58     -0.00582              0.02252             -0.02227         *
 * Ni             59     -0.03898              0.20729              0.00104         *
 * Ni             60      0.11835             -0.12965             -0.04964         *
 * Ni             61      0.09836              0.05376             -0.16259         *
 * Ni             62     -0.00619             -0.01025              0.00501         *
 * Ni             63     -0.11327              0.00070             -0.05000         *
 * Ni             64     -0.03809              0.01177              0.01502         *
 * Ni             65      0.02161             -0.11499              0.09622         *
 * Ni             66      0.14858              0.02766             -0.04082         *
 * Ni             67      0.08340              0.00058             -0.14640         *
 * Ni             68     -0.00655             -0.00443             -0.00472         *
 * Ni             69     -0.01891             -0.03928             -0.02022         *
 * Ni             70      0.00395             -0.03401              0.00239         *
 * Ni             71     -0.22563              0.04916             -0.50030         *
 * Ni             72     -0.07477             -0.03649              0.11579         *
 * Ni             73      0.10041             -0.00678              0.05963         *
 * Ni             74      0.02793             -0.00307             -0.00341         *
 * Ni             75      0.09781             -0.00866              0.02708         *
 * Ni             76     -0.00507             -0.02870              0.03987         *
 * Ni             77      0.09114             -0.06304             -0.12916         *
 * Ni             78     -0.12935              0.00942              0.18609         *
 * Ni             79      0.11193             -0.03682              0.12971         *
 * Ni             80      0.03527              0.03247              0.00781         *
 * Ni             81      0.00946              0.02431             -0.00206         *
 * Ni             82      0.00054             -0.00722             -0.00524         *
 * Ni             83      0.11162             -0.05059             -0.11897         *
 * Ni             84      0.00852             -0.03127             -0.13956         *
 * Ni             85      0.12047             -0.00877              0.04571         *
 * Ni             86     -0.00211             -0.00379             -0.01286         *
 * Ni             87     -0.01234             -0.01118             -0.00432         *
 * Ni             88     -0.05494              0.02701              0.01952         *
 * Ni             89      0.14147              0.11986             -0.15631         *
 * Ni             90     -0.23368             -0.35041             -0.13099         *
 * Ni             91      0.12783              0.05930             -0.00777         *
 * Ni             92      0.00617             -0.03165              0.01214         *
 * Ni             93     -0.00664             -0.00324             -0.03082         *
 * Ni             94      0.01302              0.01359              0.01812         *
 * Ni             95     -0.11060             -0.07226              0.09456         *
 * Ni             96     -0.34553              0.26541             -0.13267         *
 * Ni             97     -0.27180              0.33502              0.07299         *
 * Ni             98      0.01394             -0.17692              0.17133         *
 * Ni             99      0.01116              0.29320              0.14261         *
 * Ni            100      0.22679              0.05853              0.12110         *
 * Ni            101     -0.20812              0.02975             -0.06762         *
 * Ni            102      0.03200             -0.10364              0.18211         *
 * Ni            103      0.09349              0.02508              0.06410         *
 * Ni            104      0.08008             -0.25478              0.44920         *
 * Ni            105     -0.06836             -0.17870              0.04142         *
 * Ni            106      0.32234             -0.05932              0.05497         *
 * Ni            107     -0.18512             -0.16254              0.00329         *
 * Ni            108     -0.07098             -0.00193              0.00483         *
 * Ni            109      0.01360             -0.00172             -0.04046         *
 * Ni            110     -0.16500             -0.17234              0.15408         *
 * Ni            111     -0.22201             -0.05204             -0.06009         *
 * Ni            112      0.03659             -0.14378             -0.04352         *
 * Ni            113      0.26160              0.13665              0.07228         *
 * Ni            114      0.01431             -0.02072              0.00934         *
 * Ni            115     -0.05895              0.01348              0.14028         *
 * Ni            116      0.09003              0.23332              0.17858         *
 * Ni            117      0.07164              0.02018              0.12721         *
 * Ni            118      0.11367             -0.00403              0.13255         *
 * Ni            119      0.16200              0.09334              0.02860         *
 * Ni            120     -0.02796              0.06376             -0.25518         *
 * Ni            121     -0.11898             -0.06333              0.24292         *
 * Ni            122     -0.17101             -0.05776              0.13373         *
 * Ni            123     -0.08433              0.15202             -0.14818         *
 * Ni            124      0.09950             -0.00465             -0.02329         *
 * Ni            125      0.16284              0.29678             -0.10236         *
 * Ni            126     -0.27539             -0.24398              0.06165         *
 * Ni            127     -0.05042             -0.05158             -0.11365         *
 * Ni            128     -0.17907             -0.07984              0.00721         *
 * Ni            129     -0.03652              0.15782             -0.11021         *
 * Ni            130      0.04683             -0.06532              0.00608         *
 * Ni            131      0.03171              0.00650              0.09740         *
 * Ni            132      0.09494             -0.02407              0.04405         *
 * Ni            133      0.12124             -0.12574             -0.15464         *
 * Ni            134     -0.07751              0.11638              0.19495         *
 * Ni            135     -0.18538              0.05419              0.09118         *
 * Ni            136     -0.18885              0.06408             -0.14028         *
 * Ni            137     -0.34764             -0.39937             -0.02326         *
 * Ni            138      0.12050              0.09057             -0.02121         *
 * Ni            139     -0.12657             -0.03084             -0.08080         *
 * Ni            140      0.12612             -0.02048             -0.00453         *
 * Ni            141     -0.13695              0.08700              0.20363         *
 * Ni            142      0.17712              0.01665             -0.11435         *
 * Ni            143      0.32773              0.19798             -0.22759         *
 * Ni            144     -0.09627             -0.05427              0.01146         *
 * Ni            145      0.16799              0.04417             -0.11240         *
 * Ni            146     -0.35492             -0.22616              0.20744         *
 * Ni            147     -0.04395             -0.07046              0.05471         *
 * Ni            148      0.22134              0.10721             -0.03160         *
 * Ni            149      0.20444             -0.06058             -0.25255         *
 * Ni            150      0.02113             -0.07264              0.23477         *
 * Ni            151     -0.31622              0.06216              0.12913         *
 * Ni            152      0.03601             -0.14529             -0.04326         *
 * Ni            153     -0.06743              0.17080             -0.22254         *
 * Ni            154      0.19449              0.21387              0.02271         *
 * Ni            155     -0.00970             -0.12815              0.07407         *
 * Ni            156     -0.04981             -0.13017             -0.28960         *
 * Ni            157      0.25201              0.05416             -0.25584         *
 * Ni            158     -0.17872              0.11504              0.24246         *
 * Ni            159     -0.15440             -0.05333              0.11376         *
 * Ni            160     -0.25226              0.16049              0.21377         *
 * Ni            161     -0.02799              0.06394              0.10988         *
 * Ni            162     -0.00923             -0.12863              0.08042         *
 * Ni            163      0.00560              0.06234              0.25563         *
 * Ni            164      0.33415             -0.09858             -0.08302         *
 * Ni            165     -0.32799              0.04559              0.17504         *
 * Ni            166     -0.10639              0.12372             -0.01567         *
 * Ni            167     -0.05881             -0.15313              0.09553         *
 * Ni            168     -0.24713              0.15726              0.24818         *
 * Ni            169     -0.02848             -0.12597             -0.05795         *
 * Ni            170      0.06645              0.28541             -0.03308         *
 * Ni            171      0.25503              0.11801              0.32528         *
 * Ni            172      0.26067             -0.14600              0.00137         *
 * Ni            173     -0.26690              0.26869             -0.07273         *
 * Ni            174     -0.06104              0.00001              0.01666         *
 * Ni            175      0.03530             -0.07097             -0.02326         *
 * Ni            176     -0.01985             -0.06184              0.21636         *
 * Ni            177      0.05955             -0.01414             -0.17841         *
 * Ni            178      0.07421              0.08914             -0.22448         *
 * Ni            179      0.29025             -0.07730              0.06160         *
 * Ni            180     -0.07091              0.02664             -0.11834         *
 * Ni            181     -0.09590             -0.01853              0.06494         *
 * Ni            182     -0.17450             -0.17282             -0.10024         *
 * Ni            183      0.03197              0.09957              0.35143         *
 * Ni            184     -0.15285              0.15952              0.01012         *
 * Ni            185      0.11365             -0.06023              0.00908         *
 * Ni            186     -0.00351             -0.09744             -0.14030         *
 * Ni            187     -0.06960             -0.10590             -0.19117         *
 * Ni            188      0.05092              0.18295             -0.06979         *
 * Ni            189     -0.08389              0.09744              0.27967         *
 * Ni            190      0.13611             -0.01334             -0.20440         *
 * Ni            191     -0.05769              0.04088             -0.11900         *
 * Ni            192      0.09214             -0.00054             -0.13438         *
 *                                                                                  *
 ************************************************************************************
 LBFGS: finished iteration     0 with enthalpy= -2.71385140E+005 eV
  
 +-----------+-----------------+-----------------+------------+-----+ <-- LBFGS
 | Parameter |      value      |    tolerance    |    units   | OK? | <-- LBFGS
 +-----------+-----------------+-----------------+------------+-----+ <-- LBFGS
 |  dE/ion   |   0.000000E+000 |   2.000000E-005 |         eV | No  | <-- LBFGS
 |  |F|max   |   9.698872E-001 |   5.000000E-002 |       eV/A | No  | <-- LBFGS
 |  |dR|max  |   0.000000E+000 |   1.000000E-003 |          A | No  | <-- LBFGS
 +-----------+-----------------+-----------------+------------+-----+ <-- LBFGS
  

================================================================================
 Starting LBFGS iteration          1 ...
================================================================================
  
 +------------+-------------+-------------+-----------------+ <-- min LBFGS
 |    Step    |   lambda    |   F.delta'  |    enthalpy     | <-- min LBFGS
 +------------+-------------+-------------+-----------------+ <-- min LBFGS
 |  previous  |    0.000000 |    2.079540 |  -271385.140462 | <-- min LBFGS
 +------------+-------------+-------------+-----------------+ <-- min LBFGS
  

--------------------------------------------------------------------------------
 LBFGS: starting iteration         1 with trial guess (lambda=  1.000000)
--------------------------------------------------------------------------------
 
                           -------------------------------
                                     Cell Contents
                           -------------------------------
 
            xxxxxxxxxxxxxxxxxxxxxxxxxxxxxxxxxxxxxxxxxxxxxxxxxxxxxxxxxxxxxxxxx
            x  Element         Atom        Fractional coordinates of atoms  x
            x                 Number           u          v          w      x
            x---------------------------------------------------------------x
            x  Al                1         0.570687   0.307412   0.064464   x
            x  Al                2         0.818252   0.309205   0.063215   x
            x  Al                3         0.569876   0.559263   0.065838   x
            x  Al                4         0.817603   0.558237   0.063655   x
            x  Al                5         0.575303   0.809633   0.060325   x
            x  Al                6         0.819112   0.807802   0.062787   x
            x  Al                7         0.572227   0.058450   0.063464   x
            x  Al                8         0.819973   0.059148   0.062435   x
            x  Al                9         0.569596   0.305965   0.312686   x
            x  Al               10         0.817817   0.308659   0.313933   x
            x  Al               11         0.573345   0.554857   0.311889   x
            x  Al               12         0.816705   0.558098   0.313974   x
            x  Al               13         0.577381   0.814392   0.313141   x
            x  Al               14         0.819195   0.808320   0.313549   x
            x  Al               15         0.574361   0.057122   0.309353   x
            x  Al               16         0.819976   0.058974   0.313358   x
            x  Al               17         0.570258   0.306342   0.562136   x
            x  Al               18         0.817081   0.309542   0.563353   x
            x  Al               19         0.567325   0.559705   0.561506   x
            x  Al               20         0.816101   0.558300   0.563090   x
            x  Al               21         0.574653   0.809406   0.566257   x
            x  Al               22         0.818587   0.807348   0.564023   x
            x  Al               23         0.577136   0.057432   0.569298   x
            x  Al               24         0.819626   0.058861   0.564173   x
            x  Al               25         0.571615   0.308623   0.813990   x
            x  Al               26         0.817116   0.310216   0.813220   x
            x  Al               27         0.568922   0.558949   0.814878   x
            x  Al               28         0.816571   0.557898   0.813051   x
            x  Al               29         0.570684   0.808509   0.814480   x
            x  Al               30         0.819230   0.807163   0.813542   x
            x  Al               31         0.572531   0.057949   0.813110   x
            x  Al               32         0.820044   0.059086   0.813980   x
            x  Al               33         0.328690   0.182484   0.934428   x
            x  Al               34         0.056350   0.057853   0.808081   x
            x  Al               35         0.192978   0.190310   0.805076   x
            x  Al               36         0.321498   0.935472   0.939698   x
            x  Al               37         0.192678   0.929506   0.805057   x
            x  Al               38         0.318589   0.689982   0.944298   x
            x  Al               39         0.074680   0.687542   0.929669   x
            x  Al               40         0.198698   0.188597   0.572707   x
            x  Al               41         0.067230   0.805447   0.566013   x
            x  Al               42         0.326130   0.685011   0.688952   x
            x  Al               43         0.194369   0.667424   0.563665   x
            x  Al               44         0.337277   0.428720   0.680757   x
            x  Al               45         0.328535   0.555023   0.820017   x
            x  Al               46         0.192221   0.432874   0.556864   x
            x  Al               47         0.063727   0.435394   0.688542   x
            x  Al               48         0.317504   0.060370   0.312318   x
            x  Al               49         0.440420   0.057079   0.445080   x
            x  Al               50         0.185824   0.054907   0.185580   x
            x  Al               51         0.068438   0.185161   0.441732   x
            x  Al               52         0.433460   0.814675   0.439823   x
            x  Al               53         0.070861   0.945096   0.442293   x
            x  Al               54         0.201486   0.808499   0.432165   x
            x  Al               55         0.432124   0.677760   0.310310   x
            x  Al               56         0.334572   0.430830   0.439270   x
            x  Al               57         0.188481   0.425160   0.313505   x
            x  Al               58         0.187093   0.186347   0.057709   x
            x  Al               59         0.434354   0.816951   0.185475   x
            x  Al               60         0.191696   0.811545   0.187868   x
            x  Al               61         0.191589   0.426152   0.055730   x
            x  Al               62         0.193502   0.427347   0.821524   x
            x  Al               63         0.188905   0.565177   0.184531   x
            x  Ni                1         0.568083   0.431587   0.187871   x
            x  Ni                2         0.694189   0.307832   0.188620   x
            x  Ni                3         0.693655   0.433459   0.064142   x
            x  Ni                4         0.817454   0.433622   0.189090   x
            x  Ni                5         0.942306   0.309348   0.188490   x
            x  Ni                6         0.942048   0.434087   0.063297   x
            x  Ni                7         0.564553   0.687906   0.191593   x
            x  Ni                8         0.693037   0.558930   0.188586   x
            x  Ni                9         0.693546   0.683085   0.064430   x
            x  Ni               10         0.818572   0.683032   0.188586   x
            x  Ni               11         0.941985   0.558335   0.188684   x
            x  Ni               12         0.942546   0.682773   0.063183   x
            x  Ni               13         0.569284   0.932594   0.186066   x
            x  Ni               14         0.695872   0.808931   0.187464   x
            x  Ni               15         0.696460   0.934207   0.062181   x
            x  Ni               16         0.820186   0.933580   0.187590   x
            x  Ni               17         0.942750   0.807901   0.188148   x
            x  Ni               18         0.943311   0.933128   0.062725   x
            x  Ni               19         0.569017   0.182489   0.187748   x
            x  Ni               20         0.696298   0.058332   0.186928   x
            x  Ni               21         0.694843   0.183634   0.062927   x
            x  Ni               22         0.819213   0.183992   0.188061   x
            x  Ni               23         0.943229   0.058864   0.187977   x
            x  Ni               24         0.943044   0.184534   0.062952   x
            x  Ni               25         0.562044   0.432042   0.441246   x
            x  Ni               26         0.691787   0.307458   0.438030   x
            x  Ni               27         0.692023   0.431826   0.314580   x
            x  Ni               28         0.816727   0.433650   0.438716   x
            x  Ni               29         0.942225   0.309362   0.438831   x
            x  Ni               30         0.941791   0.433957   0.313812   x
            x  Ni               31         0.563838   0.688645   0.433519   x
            x  Ni               32         0.690685   0.558874   0.438136   x
            x  Ni               33         0.693680   0.683941   0.313273   x
            x  Ni               34         0.817650   0.682944   0.438633   x
            x  Ni               35         0.941828   0.558438   0.438700   x
            x  Ni               36         0.942277   0.682966   0.313706   x
            x  Ni               37         0.568176   0.934978   0.440395   x
            x  Ni               38         0.694879   0.809436   0.439112   x
            x  Ni               39         0.697440   0.934904   0.313151   x
            x  Ni               40         0.820064   0.933471   0.439059   x
            x  Ni               41         0.942696   0.807810   0.438867   x
            x  Ni               42         0.943025   0.933274   0.313435   x
            x  Ni               43         0.568971   0.177785   0.438279   x
            x  Ni               44         0.695441   0.057655   0.438957   x
            x  Ni               45         0.694961   0.182749   0.313170   x
            x  Ni               46         0.818726   0.183913   0.438656   x
            x  Ni               47         0.943238   0.058833   0.438944   x
            x  Ni               48         0.942746   0.184207   0.313538   x
            x  Ni               49         0.563651   0.433784   0.683300   x
            x  Ni               50         0.692610   0.309593   0.688195   x
            x  Ni               51         0.690931   0.433687   0.562338   x
            x  Ni               52         0.816576   0.434355   0.687930   x
            x  Ni               53         0.942347   0.309893   0.688346   x
            x  Ni               54         0.941905   0.434228   0.563476   x
            x  Ni               55         0.567445   0.684533   0.689566   x
            x  Ni               56         0.690523   0.558331   0.687814   x
            x  Ni               57         0.691778   0.682961   0.562496   x
            x  Ni               58         0.817360   0.682054   0.688194   x
            x  Ni               59         0.942027   0.558390   0.688193   x
            x  Ni               60         0.942264   0.682694   0.563628   x
            x  Ni               61         0.570522   0.932740   0.690693   x
            x  Ni               62         0.695252   0.807628   0.689948   x
            x  Ni               63         0.696966   0.933155   0.564829   x
            x  Ni               64         0.820084   0.932781   0.689386   x
            x  Ni               65         0.942847   0.807323   0.688602   x
            x  Ni               66         0.943130   0.933042   0.564036   x
            x  Ni               67         0.571316   0.182277   0.689630   x
            x  Ni               68         0.697556   0.058304   0.690557   x
            x  Ni               69         0.695484   0.183725   0.563792   x
            x  Ni               70         0.818896   0.185010   0.688977   x
            x  Ni               71         0.943143   0.058936   0.688687   x
            x  Ni               72         0.942563   0.184489   0.563812   x
            x  Ni               73         0.568023   0.433794   0.941163   x
            x  Ni               74         0.693263   0.308978   0.938854   x
            x  Ni               75         0.690451   0.434402   0.812623   x
            x  Ni               76         0.817122   0.434067   0.937983   x
            x  Ni               77         0.942567   0.309796   0.937899   x
            x  Ni               78         0.942113   0.434286   0.813046   x
            x  Ni               79         0.568205   0.684290   0.939341   x
            x  Ni               80         0.692467   0.558440   0.939288   x
            x  Ni               81         0.693187   0.682538   0.813759   x
            x  Ni               82         0.818068   0.682287   0.938424   x
            x  Ni               83         0.942235   0.558264   0.938107   x
            x  Ni               84         0.942405   0.682370   0.813184   x
            x  Ni               85         0.569616   0.934265   0.937552   x
            x  Ni               86         0.695693   0.808112   0.937587   x
            x  Ni               87         0.695999   0.933037   0.814109   x
            x  Ni               88         0.819985   0.933424   0.937910   x
            x  Ni               89         0.942919   0.807541   0.938068   x
            x  Ni               90         0.943610   0.932956   0.813393   x
            x  Ni               91         0.568754   0.182421   0.938495   x
[...]
            Ni 25  -- Ni 32                  0.03         0.00          2.58846
            Ni 43  -- Ni 144                 0.01         0.00          2.58848
            Ni 14  -- Ni 39                  0.02        -0.00          2.58851
             Al 61 -- Ni 102                 0.16        -0.00          2.58852
            Ni 105 -- Ni 131                 0.02        -0.00          2.58853
             Al 5  -- Ni 108                 0.16         0.00          2.58884
            Ni 114 -- Ni 140                 0.05        -0.00          2.58899
             Al 40 -- Ni 124                 0.20         0.00          2.58904
             Al 11 -- Ni 7                   0.20         0.00          2.58906
             Al 15 -- Ni 44                  0.20        -0.00          2.58924
             Al 40 -- Ni 145                 0.17         0.00          2.58936
            Ni 36  -- Ni 129                 0.11        -0.00          2.58962
            Ni 110 -- Ni 136                 0.06        -0.00          2.58972
            Ni 28  -- Ni 51                  0.04         0.00          2.58979
            Ni 142 -- Ni 143                 0.05        -0.00          2.59019
             Al 14 -- Ni 16                  0.19         0.00          2.59077
            Ni 12  -- Ni 89                  0.03        -0.00          2.59079
            Ni 130 -- Ni 131                 0.12        -0.00          2.59119
             Al 60 -- Ni 112                 0.17        -0.00          2.59135
             Al 48 -- Ni 141                 0.18        -0.00          2.59153
            Ni 104 -- Ni 177                 0.05        -0.00          2.59159
            Ni 71  -- Ni 96                  0.01         0.00          2.59159
            Ni 110 -- Ni 112                 0.05        -0.00          2.59191
            Ni 133 -- Ni 135                 0.03         0.00          2.59194
            Ni 67  -- Ni 165                 0.02         0.00          2.59214
            Ni 37  -- Ni 38                  0.07         0.00          2.59215
             Al 61 -- Ni 97                  0.18         0.00          2.59222
            Ni 90  -- Ni 95                  0.01        -0.00          2.59256
            Ni 128 -- Ni 144                 0.14         0.00          2.59273
            Ni 169 -- Ni 171                -0.00        -0.00          2.59328
             Al 40 -- Ni 163                 0.16        -0.00          2.59330
            Ni 183 -- Ni 185                 0.07        -0.00          2.59331
            Ni 174 -- Ni 182                 0.00         0.00          2.59356
            Ni 13  -- Ni 120                 0.04         0.00          2.59357
            Ni 101 -- Ni 144                 0.09        -0.00          2.59361
            Ni 34  -- Ni 41                  0.06         0.00          2.59416
             Al 27 -- Ni 49                  0.18        -0.00          2.59485
             Al 49 -- Ni 139                 0.18         0.00          2.59561
             Al 12 -- Ni 32                  0.20        -0.00          2.59595
            Ni 116 -- Ni 118                 0.02        -0.00          2.59610
             Al 16 -- Ni 40                  0.19        -0.00          2.59614
            Ni 26  -- Ni 43                  0.06         0.00          2.59625
             Al 43 -- Ni 150                 0.18         0.00          2.59638
            Ni 170 -- Ni 175                -0.01         0.00          2.59639
            Ni 145 -- Ni 170                -0.00         0.00          2.59653
             Al 51 -- Ni 124                 0.19        -0.00          2.59661
             Al 34 -- Ni 162                 0.16        -0.00          2.59687
            Ni 129 -- Ni 132                 0.11        -0.00          2.59689
            Ni 1   -- Ni 8                   0.03        -0.00          2.59691
             Al 63 -- Ni 97                  0.17         0.00          2.59707
            Ni 59  -- Ni 78                 -0.00        -0.00          2.59716
            Ni 155 -- Ni 156                 0.06         0.00          2.59719
            Ni 60  -- Ni 65                  0.01         0.00          2.59720
             Al 44 -- Ni 170                 0.16         0.00          2.59773
            Ni 151 -- Ni 174                -0.04         0.00          2.59779
            Ni 13  -- Ni 139                -0.01         0.00          2.59784
            Ni 41  -- Ni 66                 -0.03         0.00          2.59784
             Al 15 -- Ni 37                  0.19        -0.00          2.59791
             Al 17 -- Ni 69                  0.18        -0.00          2.59796
            Ni 51  -- Ni 52                  0.03         0.00          2.59817
            Ni 138 -- Ni 139                -0.01         0.00          2.59821
             Al 41 -- Ni 129                 0.20         0.00          2.59849
            Ni 151 -- Ni 152                 0.04         0.00          2.59868
            Ni 35  -- Ni 129                 0.10         0.00          2.59908
            Ni 111 -- Ni 186                 0.08         0.00          2.59936
             Al 56 -- Ni 128                 0.15         0.00          2.59949
            Ni 13  -- Ni 20                  0.06         0.00          2.59949
             Al 56 -- Ni 135                 0.15         0.00          2.60008
            Ni 49  -- Ni 75                  0.01         0.00          2.60025
             Al 38 -- Ni 188                 0.17        -0.00          2.60048
            Ni 53  -- Ni 54                  0.00        -0.00          2.60077
            Ni 41  -- Ni 42                  0.03        -0.00          2.60149
             Al 3  -- Ni 180                 0.17        -0.00          2.60164
             Al 60 -- Ni 113                 0.19        -0.00          2.60180
             Al 58 -- Ni 117                 0.15        -0.00          2.60205
            Ni 133 -- Ni 160                -0.02         0.00          2.60227
             Al 50 -- Ni 142                 0.15        -0.00          2.60254
            Ni 112 -- Ni 122                 0.11         0.00          2.60259
            Ni 68  -- Ni 69                  0.03         0.00          2.60267
            Ni 123 -- Ni 124                 0.02        -0.00          2.60300
            Ni 155 -- Ni 157                 0.07         0.00          2.60303
            Ni 150 -- Ni 178                 0.08         0.00          2.60318
            Ni 13  -- Ni 39                  0.01         0.00          2.60366
            Ni 117 -- Ni 122                 0.03         0.00          2.60372
            Ni 99  -- Ni 169                 0.01        -0.00          2.60395
            Ni 54  -- Ni 59                  0.00         0.00          2.60460
             Al 22 -- Ni 57                  0.19        -0.00          2.60472
            Ni 47  -- Ni 163                 0.06        -0.00          2.60484
            Ni 138 -- Ni 159                 0.02         0.00          2.60495
            Ni 111 -- Ni 115                 0.04         0.00          2.60522
            Ni 25  -- Ni 27                  0.00         0.00          2.60570
            Ni 95  -- Ni 96                  0.01        -0.00          2.60616
            Ni 161 -- Ni 162                -0.01         0.00          2.60626
            Ni 55  -- Ni 181                 0.06         0.00          2.60696
            Ni 143 -- Ni 167                 0.01         0.00          2.60726
            Ni 152 -- Ni 158                 0.03         0.00          2.60737
            Ni 53  -- Ni 78                  0.00        -0.00          2.60864
            Ni 113 -- Ni 139                 0.01         0.00          2.60869
             Al 55 -- Ni 31                  0.17        -0.00          2.60887
             Al 9  -- Ni 43                  0.19        -0.00          2.60928
             Al 21 -- Ni 159                 0.16         0.00          2.60928
            Ni 147 -- Ni 170                -0.02         0.00          2.60951
            Ni 178 -- Ni 185                 0.08        -0.00          2.60978
             Al 9  -- Ni 144                 0.19        -0.00          2.60983
             Al 38 -- Ni 177                 0.17         0.00          2.60989
            Ni 173 -- Ni 192                -0.01         0.00          2.61035
            Ni 129 -- Ni 130                 0.08        -0.00          2.61042
            Ni 169 -- Ni 172                 0.01        -0.00          2.61045
             Al 34 -- Ni 122                 0.16        -0.00          2.61064
            Ni 130 -- Ni 153                -0.01         0.00          2.61065
             Al 51 -- Ni 163                 0.16        -0.00          2.61157
            Ni 71  -- Ni 90                  0.02         0.00          2.61171
            Ni 146 -- Ni 174                 0.01         0.00          2.61190
            Ni 121 -- Ni 173                 0.01         0.00          2.61249
             Al 11 -- Ni 107                 0.16         0.00          2.61274
             Al 38 -- Ni 178                 0.17        -0.00          2.61295
            Ni 172 -- Ni 177                -0.02        -0.00          2.61309
             Al 17 -- Ni 43                  0.17        -0.00          2.61327
            Ni 117 -- Ni 191                 0.08         0.00          2.61352
             Al 58 -- Ni 122                 0.18        -0.00          2.61382
            Ni 156 -- Ni 167                 0.11        -0.00          2.61410
            Ni 178 -- Ni 184                 0.03        -0.00          2.61431
            Ni 115 -- Ni 117                 0.09         0.00          2.61521
            Ni 168 -- Ni 177                 0.03        -0.00          2.61562
             Al 61 -- Ni 104                 0.15         0.00          2.61563
             Al 46 -- Ni 153                 0.15        -0.00          2.61630
             Al 53 -- Ni 137                 0.18         0.00          2.61652
            Ni 127 -- Ni 134                 0.02         0.00          2.61701
             Al 48 -- Ni 120                 0.18        -0.00          2.61711
            Ni 65  -- Ni 66                  0.02         0.00          2.61736
            Ni 138 -- Ni 160                 0.05         0.00          2.61779
            Ni 158 -- Ni 181                -0.01         0.00          2.61811
             Al 21 -- Ni 31                  0.19         0.00          2.61856
            Ni 178 -- Ni 179                 0.06        -0.00          2.61911
            Ni 152 -- Ni 160                 0.02         0.00          2.61932
             Al 40 -- Ni 143                 0.18         0.00          2.61938
            Ni 130 -- Ni 149                -0.02        -0.00          2.62007
             Al 35 -- Ni 122                 0.17         0.00          2.62048
             Al 36 -- Ni 122                 0.17         0.00          2.62152
            Ni 42  -- Ni 47                 -0.01        -0.00          2.62176
            Ni 37  -- Ni 39                  0.01         0.00          2.62200
             Al 36 -- Ni 184                 0.17         0.00          2.62243
            Ni 140 -- Ni 141                 0.07        -0.00          2.62274
            Ni 110 -- Ni 118                 0.04        -0.00          2.62289
             Al 58 -- Ni 119                 0.16        -0.00          2.62295
            Ni 102 -- Ni 109                -0.00        -0.00          2.62372
             Al 5  -- Ni 7                   0.19         0.00          2.62406
            Ni 159 -- Ni 160                 0.09         0.00          2.62531
            Ni 136 -- Ni 141                 0.01        -0.00          2.62538
            Ni 65  -- Ni 148                 0.04         0.00          2.62627
             Al 43 -- Ni 155                 0.18        -0.00          2.62861
             Al 50 -- Ni 117                 0.14        -0.00          2.62872
             Al 47 -- Ni 150                 0.18        -0.00          2.62921
            Ni 102 -- Ni 108                 0.09        -0.00          2.62946
            Ni 156 -- Ni 157                 0.12        -0.00          2.62971
            Ni 158 -- Ni 160                 0.11         0.00          2.63083
             Al 44 -- Ni 175                 0.16         0.00          2.63086
             Al 5  -- Ni 115                 0.15         0.00          2.63119
            Ni 124 -- Ni 125                 0.03        -0.00          2.63139
            Ni 170 -- Ni 171                -0.02        -0.00          2.63153
             Al 23 -- Ni 166                 0.14         0.00          2.63257
            Ni 134 -- Ni 135                 0.09        -0.00          2.63376
             Al 52 -- Ni 37                  0.15         0.00          2.63427
            Ni 162 -- Ni 164                 0.01         0.00          2.63454
            Ni 154 -- Ni 155                 0.06         0.00          2.63466
            Ni 114 -- Ni 138                 0.00         0.00          2.63482
            Ni 108 -- Ni 111                 0.02        -0.00          2.63501
             Al 38 -- Ni 182                 0.16        -0.00          2.63533
             Al 63 -- Ni 100                 0.16        -0.00          2.63696
             Al 52 -- Ni 31                  0.16         0.00          2.63862
             Al 39 -- Ni 178                 0.18        -0.00          2.63873
            Ni 150 -- Ni 153                -0.01         0.00          2.63955
            Ni 155 -- Ni 188                 0.03         0.00          2.63967
             Al 37 -- Ni 190                 0.15         0.00          2.64008
             Al 11 -- Ni 31                  0.17        -0.00          2.64018
            Ni 7   -- Ni 107                 0.01        -0.00          2.64049
            Ni 31  -- Ni 32                  0.05         0.00          2.64117
             Al 23 -- Ni 159                 0.14         0.00          2.64157
            Ni 126 -- Ni 127                -0.00         0.00          2.64217
            Ni 156 -- Ni 162                 0.13         0.00          2.64228
            Ni 31  -- Ni 57                  0.07         0.00          2.64335
             Al 44 -- Ni 150                 0.14         0.00          2.64368
            Ni 114 -- Ni 133                -0.03         0.00          2.64477
             Al 3  -- Ni 7                   0.18        -0.00          2.64511
             Al 48 -- Al 50                  0.25        -0.00          2.64517
             Al 59 -- Ni 7                   0.15         0.00          2.64534
             Al 46 -- Ni 147                 0.13        -0.00          2.64692
            Ni 106 -- Ni 135                 0.03        -0.00          2.64809
             Al 13 -- Ni 139                 0.16         0.00          2.64839
             Al 50 -- Al 58                  0.24        -0.00          2.65069
             Al 48 -- Al 49                  0.26         0.00          2.65098
             Al 37 -- Ni 122                 0.16         0.00          2.65223
             Al 35 -- Ni 189                 0.15         0.00          2.65348
             Al 33 -- Ni 122                 0.15         0.00          2.65572
             Al 50 -- Ni 119                 0.13        -0.00          2.65852
            Ni 7   -- Ni 8                   0.05        -0.00          2.65968
             Al 35 -- Ni 190                 0.13        -0.00          2.66060
            Ni 7   -- Ni 9                   0.06        -0.00          2.66349
             Al 43 -- Ni 160                 0.15        -0.00          2.66620
             Al 42 -- Al 43                  0.25         0.00          2.66865
             Al 42 -- Ni 153                 0.16         0.00          2.67129
             Al 23 -- Al 49                  0.24         0.00          2.67194
             Al 38 -- Al 45                  0.23         0.00          2.68061
            Ni 168 -- Ni 169                 0.02        -0.00          2.68960
            Ni 148 -- Ni 150                 0.07         0.00          2.69049
             Al 45 -- Al 62                  0.21        -0.00          2.69563
             Al 46 -- Al 56                  0.26         0.00          2.69587
            Ni 161 -- Ni 170                 0.02         0.00          2.70734
             Al 5  -- Al 59                  0.20         0.00          2.71320
             Al 56 -- Ni 130                 0.10         0.00          2.71553
             Al 19 -- Ni 31                  0.13        -0.00          2.71628
             Al 42 -- Al 45                  0.21         0.00          2.72027
             Al 11 -- Al 55                  0.20         0.00          2.72221
            Ni 164 -- Ni 170                 0.04         0.00          2.72315
             Al 36 -- Al 37                  0.22         0.00          2.72368
            Ni 149 -- Ni 150                 0.00         0.00          2.72523
             Al 56 -- Ni 124                 0.10         0.00          2.73329
             Al 55 -- Al 59                  0.20        -0.00          2.73503
             Al 46 -- Al 47                  0.21         0.00          2.73525
             Al 34 -- Al 35                  0.19         0.00          2.73742
             Al 33 -- Al 35                  0.21         0.00          2.73827
             Al 33 -- Al 58                  0.20        -0.00          2.74139
             Al 21 -- Al 52                  0.20         0.00          2.74443
             Al 34 -- Al 37                  0.19         0.00          2.74511
             Al 57 -- Al 63                  0.19        -0.00          2.74962
             Al 61 -- Al 63                  0.20        -0.00          2.75007
             Al 52 -- Al 55                  0.20         0.00          2.76057
             Al 47 -- Al 62                  0.18         0.00          2.76658
             Al 15 -- Al 49                  0.19         0.00          2.77148
             Al 44 -- Al 46                  0.20         0.00          2.77407
             Al 40 -- Al 51                  0.20         0.00          2.77848
             Al 53 -- Al 54                  0.18        -0.00          2.78013
             Al 42 -- Ni 150                 0.11         0.00          2.78328
             Al 44 -- Al 45                  0.15         0.00          2.78554
             Al 41 -- Al 43                  0.16         0.00          2.78620
             Al 41 -- Al 53                  0.17         0.00          2.80219
             Al 43 -- Al 54                  0.16         0.00          2.80634
             Al 13 -- Al 59                  0.17         0.00          2.82997
             Al 13 -- Al 52                  0.17         0.00          2.83106
             Al 56 -- Al 57                  0.15        -0.00          2.84028
             Al 41 -- Al 54                  0.12         0.00          2.86776
             Al 13 -- Al 55                  0.08         0.00          2.95507
================================================================================
 

Writing analysis data to castep.castep_bin

Writing model to castep.check
 
 A BibTeX formatted list of references used in this run has been written to 
 castep.bib
 
Initialisation time =     13.42 s
Calculation time    =  16403.94 s
Finalisation time   =     11.57 s
Total time          =  16428.94 s
Peak Memory Use     = 2359572 kB
  
Overall parallel efficiency rating: Good (70%)                                  
  
Data was distributed by:-
G-vector (48-way); efficiency rating: Good (71%)                                
