 +-------------------------------------------------+
 |                                                 |
 |      CCC   AA    SSS  TTTTT  EEEEE  PPPP        |
 |     C     A  A  S       T    E      P   P       |
 |     C     AAAA   SS     T    EEE    PPPP        |
 |     C     A  A     S    T    E      P           |
 |      CCC  A  A  SSS     T    EEEEE  P           |
 |                                                 |
 +-------------------------------------------------+
 |                                                 |
 | Welcome to Academic Release CASTEP version 22.11|
 | Ab Initio Total Energy Program                  |
 |                                                 |
 | Authors:                                        |
 | M. Segall, M. Probert, C. Pickard, P. Hasnip,   |
 | S. Clark, K. Refson, J. R. Yates, M. Payne      |
 |                                                 |
 | Contributors:                                   |
 | P. Lindan, P. Haynes, J. White, V. Milman,      |
 | N. Govind, M. Gibson, P. Tulip, V. Cocula,      |
 | B. Montanari, D. Quigley, M. Glover,            |
 | L. Bernasconi, A. Perlov, M. Plummer,           |
 | E. McNellis, J. Meyer, J. Gale, D. Jochym       |
 | J. Aarons, B. Walker, R. Gillen, D. Jones       |
 | T. Green, I. J. Bush, C. J. Armstrong,          |
 | E. J. Higgins, E. L. Brown, M. S. McFly,        |
 | J. Wilkins, B-C. Shih, P. J. P. Byrne,          |
 | R. J. Maurer, J. C. Womack, J. Dziedzic,        |
 | A. Bartok-Partay, L. LeBlanc, T. K. Stenczel,   |
 | J. Kermode, S. Sturniolo, B. Shi, B. Durham     |
 | M. Evans, M. J. Smith                           |
 |                                                 |
 | Copyright (c) 2000 - 2021                       |
 |                                                 |
 |     Distributed under license from Cambridge    |
 |     Enterprise for academic use only.           |
 |                                                 |
 | Please cite                                     |
 |                                                 |
 |     "First principles methods using CASTEP"     |
 |                                                 |
 |         Zeitschrift fuer Kristallographie       |
 |           220(5-6) pp. 567-570 (2005)           |
 |                                                 |
 | S. J. Clark, M. D. Segall, C. J. Pickard,       |
 | P. J. Hasnip, M. J. Probert, K. Refson,         |
 | M. C. Payne                                     |
 |                                                 |
 |       in all publications arising from          |
 |              your use of CASTEP                 |
 |                                                 |
 +-------------------------------------------------+
 |                                                 |
 |              http://www.castep.org              |
 |                                                 |
 +-------------------------------------------------+
 
 
 
 Compiled for linux_x86_64_ifort on Wed, 18 Jan 2023 15:42:19 +0000
 from code version b807d1bba+  Castep221_branch  Wed Sep 14 11:18:35 2022 +0100
 Compiler: Intel Fortran 19.0.5.281; Optimisation: fast
 MATHLIBS: Intel MKL(2019.0.5) (LAPACK version 3.7.0)
 FFT Lib : mkl
 Fundamental constants values: CODATA 2014
 
 Run started: Wed, 26 Apr 2023 10:56:02 +0100
 
 Atomic calculation performed for Al: 1s2 2s2 2p6 3s2 3p1
 
 Converged in 52 iterations to an ae energy of -6606.982 eV
 
   ============================================================                
   | Pseudopotential Report - Date of generation 26-04-2023   |                
   ------------------------------------------------------------                
   | Element: Al Ionic charge:  3.00 Level of theory: RPBE    |                
   | Atomic Solver: Koelling-Harmon                           |                
   |                                                          |                
   |               Reference Electronic Structure             |                
   |         Orbital         Occupation         Energy        |                
   |            3s              2.000           -0.284        |                
   |            3p              1.000           -0.100        |                
   |                                                          |                
   |                 Pseudopotential Definition               |                
   |        Beta     l      e      Rc     scheme   norm       |                
   |          1      0   -0.284   2.192     qc      0         |                
   |          2      0    0.250   2.192     qc      0         |                
   |          3      1   -0.100   2.192     qc      0         |                
   |          4      1    0.250   2.192     qc      0         |                
   |          5      2    0.000   2.000     qc      0         |                
   |          6      2    0.250   2.000     qc      0         |                
   |         loc     3    0.000   2.192     pn      0         |                
   |                                                          |                
   | Augmentation charge Rinner = 1.398                       |                
   | Partial core correction Rc = 1.398                       |                
   ------------------------------------------------------------                
   | "3|2.2|2.2|1.4|4|5|5|30:31:32U2U2"                       |                
   ------------------------------------------------------------                
   |      Author: Chris J. Pickard, Cambridge University      |                
   ============================================================                
 
 Atomic calculation performed for Ni: 1s2 2s2 2p6 3s2 3p6 3d8 4s2
 
 Converged in 109 iterations to an ae energy of -41381.414 eV
 
   ============================================================                
   | Pseudopotential Report - Date of generation 26-04-2023   |                
   ------------------------------------------------------------                
   | Element: Ni Ionic charge: 10.00 Level of theory: RPBE    |                
   | Atomic Solver: Koelling-Harmon                           |                
   |                                                          |                
   |               Reference Electronic Structure             |                
   |         Orbital         Occupation         Energy        |                
   |            3d              8.000           -0.324        |                
   |            4s              2.000           -0.204        |                
   |                                                          |                
   |                 Pseudopotential Definition               |                
   |        Beta     l      e      Rc     scheme   norm       |                
   |          1      0   -0.204   2.401     qc      0         |                
   |          2      0    0.250   2.401     qc      0         |                
   |          3      1    0.000   2.401     qc      0         |                
   |          4      1    0.250   2.401     qc      0         |                
   |          5      2   -0.324   1.999     qc      0         |                
   |          6      2    0.250   1.999     qc      0         |                
   |         loc     3    0.000   2.401     pn      0         |                
   |                                                          |                
   | Augmentation charge Rinner = 1.001                       |                
   | Partial core correction Rc = 1.001                       |                
   ------------------------------------------------------------                
   | "3|2.4|2.4|1.0|8|9|10|40:41:32U2U2(qc=5.5)"              |                
   ------------------------------------------------------------                
   |      Author: Chris J. Pickard, Cambridge University      |                
   ============================================================                
 
 Pseudo atomic calculation performed for Al 3s2 3p1
 
 Converged in 13 iterations to a total energy of -107.6593 eV
 
 Pseudo atomic calculation performed for Ni 3d8 4s2
 
 Converged in 41 iterations to a total energy of -1369.7890 eV
 Calculation parallelised over 128 processes.
 Data is distributed by G-vector(128-way)

 ************************************ Title ************************************
 

 ***************************** General Parameters ******************************
  
 output verbosity                               : normal  (1)
 write checkpoint data to                       : castep.check
 type of calculation                            : geometry optimization
 stress calculation                             : off
 density difference calculation                 : off
 electron localisation func (ELF) calculation   : off
 Hirshfeld analysis                             : off
 polarisation (Berry phase) analysis            : off
 molecular orbital projected DOS                : off
 deltaSCF calculation                           : off
 unlimited duration calculation
 timing information                             : on
 memory usage estimate                          : on
 write extra output files                       : on
 write final potential to formatted file        : off
 write final density to formatted file          : off
 write BibTeX reference list                    : on
 write OTFG pseudopotential files               : on
 write electrostatic potential file             : on
 write bands file                               : on
 checkpoint writing                             : both castep_bin and check files
  
 output         length unit                     : A
 output           mass unit                     : amu
 output           time unit                     : ps
 output         charge unit                     : e
 output           spin unit                     : hbar/2
 output         energy unit                     : eV
 output          force unit                     : eV/A
 output       velocity unit                     : A/ps
 output       pressure unit                     : GPa
 output     inv_length unit                     : 1/A
 output      frequency unit                     : cm-1
 output force constant unit                     : eV/A**2
 output         volume unit                     : A**3
 output   IR intensity unit                     : (D/A)**2/amu
 output         dipole unit                     : D
 output         efield unit                     : eV/A/e
 output        entropy unit                     : J/mol/K
 output    efield chi2 unit                     : pm/V
  
 wavefunctions paging                           : none
 random number generator seed                   : randomised (105604569)
 data distribution                              : optimal for this architecture
 optimization strategy                          : maximize speed(+++)

 *********************** Exchange-Correlation Parameters ***********************
  
 using functional                               : revised Perdew Burke Ernzerhof
 relativistic treatment                         : Koelling-Harmon
 DFT+D: Semi-empirical dispersion correction    : off

 ************************* Pseudopotential Parameters **************************
  
 pseudopotential representation                 : reciprocal space
 <beta|phi> representation                      : reciprocal space
 spin-orbit coupling                            : off

 **************************** Basis Set Parameters *****************************
  
 plane wave basis set cut-off                   :   900.0000   eV
 size of standard grid                          :     1.7500
 size of   fine   gmax                          :    26.8966   1/A
 finite basis set correction                    : none

 **************************** Electronic Parameters ****************************
  
 number of  electrons                           :  2109.    
 net charge of system                           :  0.000    
 net spin   of system                           :  1.000    
 number of  up  spins                           :  1055.    
 number of down spins                           :  1054.    
 treating system as spin-polarized
 number of bands                                :       1167

 ********************* Electronic Minimization Parameters **********************
  
 Method: Treating system as metallic with density mixing treatment of electrons,
         and number of  SD  steps               :          1
         and number of  CG  steps               :          4
  
 total energy / atom convergence tol.           : 0.1000E-05   eV
 eigen-energy convergence tolerance             : 0.2185E-06   eV
 max force / atom convergence tol.              : ignored
 convergence tolerance window                   :          3   cycles
 max. number of SCF cycles                      :        200
 number of fixed-spin iterations                :         10
 smearing scheme                                : Gaussian
 smearing width                                 : 0.2000       eV
 Fermi energy convergence tolerance             : 0.2721E-13   eV
 periodic dipole correction                     : NONE
 periodically dump wavefunctions to             : castep.wvfn
 dump wavefunctions every                       :          1   SCF cycles

 ************************** Density Mixing Parameters **************************
  
 density-mixing scheme                          : Pulay
 max. length of mixing history                  :         20
 charge density mixing amplitude                : 0.8000    
   spin density mixing amplitude                :  2.000    
 cut-off energy for mixing                      :  900.0       eV

 *********************** Population Analysis Parameters ************************
  
 Population analysis with cutoff                :  3.000       A
 Population analysis output                     : summary and pdos components

 ********************** Geometry Optimization Parameters ***********************
  
 optimization method                            : LBFGS
 max. no. of LBFGS updates                      : unbounded
 variable cell method                           : fixed basis quality
 max. number of steps                           :         30
 estimated bulk modulus                         :  500.0       GPa
 estimated <frequency>                          :  1668.       cm-1
 geom line minimiser                            : on
 with line minimiser tolerance                  :     0.4000
  with spin fully able to relax for all steps
 total energy convergence tolerance             : 0.2000E-04   eV/atom
        max ionic |force| tolerance             : 0.5000E-01   eV/A
 max ionic |displacement| tolerance             : 0.1000E-02   A
   max |stress component| tolerance             : 0.1000       GPa
 convergence tolerance window                   :          2   steps
 backup results every                           :          5   steps
 write geom trajectory file                     : on

 *******************************************************************************
  
 
                           -------------------------------
                                      Unit Cell
                           -------------------------------
        Real Lattice(A)                      Reciprocal Lattice(1/A)
    14.4648280     0.0000000     0.0000000        0.434376773   0.000000000   0.000000000
     0.0000000    14.4648280     0.0000000        0.000000000   0.434376773   0.000000000
     0.0000000     0.0000000    14.4648280        0.000000000   0.000000000   0.434376773
 
                       Lattice parameters(A)       Cell Angles
                    a =     14.464828          alpha =   90.000000
                    b =     14.464828          beta  =   90.000000
                    c =     14.464828          gamma =   90.000000
 
                       Current cell volume =          3026.494030       A**3
                                   density =             4.285146   AMU/A**3
                                           =             7.115653     g/cm^3
 
                           -------------------------------
                                     Cell Contents
                           -------------------------------
                         Total number of ions in cell =  255
                      Total number of species in cell =    2
                        Max number of any one species =  192
 
            xxxxxxxxxxxxxxxxxxxxxxxxxxxxxxxxxxxxxxxxxxxxxxxxxxxxxxxxxxxx
            x  Element    Atom        Fractional coordinates of atoms  x
            x            Number           u          v          w      x
            x----------------------------------------------------------x
            x  Al           1         0.570703   0.307408   0.064471   x 
            x  Al           2         0.818248   0.309205   0.063219   x 
            x  Al           3         0.569888   0.559263   0.065839   x 
            x  Al           4         0.817593   0.558236   0.063658   x 
            x  Al           5         0.575312   0.809629   0.060346   x 
            x  Al           6         0.819096   0.807794   0.062790   x 
            x  Al           7         0.572249   0.058439   0.063471   x 
            x  Al           8         0.819965   0.059141   0.062442   x 
            x  Al           9         0.569611   0.305955   0.312688   x 
            x  Al          10         0.817809   0.308654   0.313939   x 
            x  Al          11         0.573353   0.554873   0.311891   x 
            x  Al          12         0.816691   0.558095   0.313978   x 
            x  Al          13         0.577332   0.814380   0.313146   x 
            x  Al          14         0.819188   0.808322   0.313557   x 
            x  Al          15         0.574365   0.057116   0.309371   x 
            x  Al          16         0.819966   0.058965   0.313364   x 
            x  Al          17         0.570288   0.306335   0.562136   x 
            x  Al          18         0.817075   0.309537   0.563357   x 
            x  Al          19         0.567346   0.559710   0.561509   x 
            x  Al          20         0.816090   0.558296   0.563095   x 
            x  Al          21         0.574656   0.809398   0.566242   x 
            x  Al          22         0.818572   0.807344   0.564026   x 
            x  Al          23         0.577137   0.057428   0.569285   x 
            x  Al          24         0.819623   0.058857   0.564177   x 
            x  Al          25         0.571636   0.308628   0.813994   x 
            x  Al          26         0.817117   0.310216   0.813223   x 
            x  Al          27         0.568938   0.558946   0.814878   x 
            x  Al          28         0.816563   0.557892   0.813054   x 
            x  Al          29         0.570704   0.808497   0.814481   x 
            x  Al          30         0.819223   0.807158   0.813543   x 
            x  Al          31         0.572560   0.057941   0.813112   x 
            x  Al          32         0.820032   0.059085   0.813979   x 
            x  Al          33         0.328673   0.182465   0.934412   x 
            x  Al          34         0.056309   0.057828   0.808042   x 
            x  Al          35         0.192983   0.190306   0.805085   x 
            x  Al          36         0.321477   0.935462   0.939669   x 
            x  Al          37         0.192686   0.929543   0.805062   x 
            x  Al          38         0.318582   0.689968   0.944271   x 
            x  Al          39         0.074760   0.687573   0.929597   x 
            x  Al          40         0.198682   0.188622   0.572716   x 
            x  Al          41         0.067334   0.805449   0.565937   x 
            x  Al          42         0.326103   0.684966   0.688961   x 
            x  Al          43         0.194381   0.667441   0.563675   x 
            x  Al          44         0.337249   0.428733   0.680792   x 
            x  Al          45         0.328539   0.555016   0.819996   x 
            x  Al          46         0.192230   0.432855   0.556882   x 
            x  Al          47         0.063809   0.435397   0.688536   x 
            x  Al          48         0.317536   0.060381   0.312328   x 
            x  Al          49         0.440419   0.057057   0.445067   x 
            x  Al          50         0.185864   0.054900   0.185590   x 
            x  Al          51         0.068507   0.185173   0.441827   x 
            x  Al          52         0.433475   0.814664   0.439799   x 
            x  Al          53         0.070947   0.945100   0.442386   x 
            x  Al          54         0.201475   0.808505   0.432193   x 
            x  Al          55         0.432145   0.677783   0.310317   x 
            x  Al          56         0.334542   0.430824   0.439276   x 
            x  Al          57         0.188508   0.425168   0.313522   x 
            x  Al          58         0.187106   0.186338   0.057692   x 
            x  Al          59         0.434351   0.816937   0.185515   x 
            x  Al          60         0.191723   0.811547   0.187891   x 
            x  Al          61         0.191589   0.426140   0.055729   x 
            x  Al          62         0.193523   0.427341   0.821487   x 
            x  Al          63         0.188911   0.565156   0.184534   x 
            x  Ni           1         0.568084   0.431577   0.187877   x 
            x  Ni           2         0.694190   0.307829   0.188619   x 
            x  Ni           3         0.693653   0.433454   0.064143   x 
            x  Ni           4         0.817442   0.433620   0.189093   x 
            x  Ni           5         0.942282   0.309348   0.188501   x 
            x  Ni           6         0.942027   0.434078   0.063308   x 
            x  Ni           7         0.564535   0.687877   0.191554   x 
            x  Ni           8         0.693033   0.558930   0.188585   x 
            x  Ni           9         0.693540   0.683082   0.064436   x 
            x  Ni          10         0.818573   0.683029   0.188586   x 
            x  Ni          11         0.941936   0.558340   0.188696   x 
            x  Ni          12         0.942518   0.682757   0.063191   x 
            x  Ni          13         0.569269   0.932611   0.186046   x 
            x  Ni          14         0.695879   0.808929   0.187467   x 
            x  Ni          15         0.696472   0.934205   0.062180   x 
            x  Ni          16         0.820190   0.933576   0.187596   x 
            x  Ni          17         0.942728   0.807882   0.188150   x 
            x  Ni          18         0.943292   0.933125   0.062748   x 
            x  Ni          19         0.569018   0.182485   0.187738   x 
            x  Ni          20         0.696292   0.058325   0.186930   x 
            x  Ni          21         0.694846   0.183629   0.062932   x 
            x  Ni          22         0.819211   0.183986   0.188068   x 
            x  Ni          23         0.943203   0.058860   0.187987   x 
            x  Ni          24         0.943037   0.184548   0.062973   x 
            x  Ni          25         0.562018   0.432034   0.441272   x 
            x  Ni          26         0.691778   0.307447   0.438027   x 
            x  Ni          27         0.692013   0.431824   0.314584   x 
            x  Ni          28         0.816722   0.433646   0.438726   x 
            x  Ni          29         0.942211   0.309350   0.438834   x 
            x  Ni          30         0.941757   0.433962   0.313830   x 
            x  Ni          31         0.563817   0.688614   0.433556   x 
            x  Ni          32         0.690685   0.558876   0.438133   x 
            x  Ni          33         0.693686   0.683935   0.313274   x 
            x  Ni          34         0.817655   0.682950   0.438639   x 
            x  Ni          35         0.941797   0.558435   0.438704   x 
            x  Ni          36         0.942236   0.682950   0.313703   x 
            x  Ni          37         0.568148   0.934981   0.440407   x 
            x  Ni          38         0.694875   0.809436   0.439115   x 
            x  Ni          39         0.697451   0.934899   0.313151   x 
            x  Ni          40         0.820068   0.933472   0.439065   x 
            x  Ni          41         0.942643   0.807806   0.438874   x 
            x  Ni          42         0.942990   0.933261   0.313447   x 
            x  Ni          43         0.568962   0.177789   0.438277   x 
            x  Ni          44         0.695430   0.057652   0.438961   x 
            x  Ni          45         0.694967   0.182746   0.313169   x 
            x  Ni          46         0.818724   0.183901   0.438660   x 
            x  Ni          47         0.943249   0.058810   0.438934   x 
            x  Ni          48         0.942748   0.184219   0.313555   x 
            x  Ni          49         0.563629   0.433789   0.683289   x 
            x  Ni          50         0.692611   0.309594   0.688203   x 
            x  Ni          51         0.690945   0.433683   0.562342   x 
            x  Ni          52         0.816566   0.434354   0.687932   x 
            x  Ni          53         0.942359   0.309919   0.688360   x 
            x  Ni          54         0.941926   0.434232   0.563508   x 
            x  Ni          55         0.567431   0.684527   0.689589   x 
            x  Ni          56         0.690521   0.558324   0.687824   x 
            x  Ni          57         0.691774   0.682954   0.562497   x 
            x  Ni          58         0.817361   0.682048   0.688199   x 
            x  Ni          59         0.942034   0.558359   0.688196   x 
            x  Ni          60         0.942249   0.682708   0.563638   x 
            x  Ni          61         0.570511   0.932728   0.690717   x 
            x  Ni          62         0.695253   0.807624   0.689949   x 
            x  Ni          63         0.696982   0.933150   0.564838   x 
            x  Ni          64         0.820089   0.932774   0.689387   x 
            x  Ni          65         0.942845   0.807334   0.688592   x 
            x  Ni          66         0.943111   0.933034   0.564045   x 
            x  Ni          67         0.571310   0.182274   0.689653   x 
            x  Ni          68         0.697559   0.058300   0.690560   x 
            x  Ni          69         0.695487   0.183727   0.563797   x 
            x  Ni          70         0.818896   0.185011   0.688980   x 
            x  Ni          71         0.943173   0.058925   0.688757   x 
            x  Ni          72         0.942573   0.184491   0.563800   x 
            x  Ni          73         0.568011   0.433791   0.941158   x 
            x  Ni          74         0.693261   0.308975   0.938859   x 
            x  Ni          75         0.690440   0.434401   0.812624   x 
            x  Ni          76         0.817125   0.434068   0.937982   x 
            x  Ni          77         0.942556   0.309800   0.937920   x 
            x  Ni          78         0.942132   0.434282   0.813025   x 
            x  Ni          79         0.568188   0.684291   0.939326   x 
            x  Ni          80         0.692463   0.558433   0.939291   x 
            x  Ni          81         0.693186   0.682530   0.813762   x 
            x  Ni          82         0.818069   0.682285   0.938428   x 
            x  Ni          83         0.942222   0.558267   0.938126   x 
            x  Ni          84         0.942405   0.682371   0.813206   x 
            x  Ni          85         0.569600   0.934260   0.937549   x 
            x  Ni          86         0.695692   0.808108   0.937592   x 
            x  Ni          87         0.696002   0.933032   0.814112   x 
            x  Ni          88         0.819993   0.933415   0.937911   x 
            x  Ni          89         0.942901   0.807521   0.938092   x 
            x  Ni          90         0.943642   0.932999   0.813414   x 
            x  Ni          91         0.568740   0.182408   0.938501   x 
            x  Ni          92         0.695331   0.058886   0.937973   x 
            x  Ni          93         0.694900   0.184227   0.814159   x 
            x  Ni          94         0.819134   0.184661   0.938126   x 
            x  Ni          95         0.943691   0.058983   0.937934   x 
            x  Ni          96         0.943073   0.184930   0.813259   x 
            x  Ni          97         0.071321   0.430803   0.184379   x 
            x  Ni          98         0.191718   0.305944   0.185086   x 
            x  Ni          99         0.064554   0.305672   0.059092   x 
            x  Ni         100         0.312290   0.432126   0.185410   x 
            x  Ni         101         0.442913   0.305780   0.188492   x 
            x  Ni         102         0.317116   0.557901   0.062251   x 
            x  Ni         103         0.320128   0.304288   0.061910   x 
            x  Ni         104         0.065610   0.560645   0.056937   x 
            x  Ni         105         0.065445   0.687316   0.187123   x 
            x  Ni         106         0.314949   0.684741   0.183931   x 
            x  Ni         107         0.442366   0.558219   0.187177   x 
            x  Ni         108         0.444609   0.686764   0.066207   x 
            x  Ni         109         0.190063   0.686600   0.061272   x 
            x  Ni         110         0.065982   0.934451   0.186204   x 
            x  Ni         111         0.316477   0.813054   0.062790   x 
            x  Ni         112         0.189884   0.936592   0.058192   x 
            x  Ni         113         0.313679   0.938971   0.185448   x 
            x  Ni         114         0.318269   0.811196   0.310121   x 
            x  Ni         115         0.444842   0.936013   0.062488   x 
            x  Ni         116         0.065544   0.181139   0.184609   x 
            x  Ni         117         0.315612   0.061873   0.060000   x 
            x  Ni         118         0.066723   0.058574   0.056333   x 
            x  Ni         119         0.314681   0.179890   0.186202   x 
            x  Ni         120         0.443282   0.057074   0.187922   x 
            x  Ni         121         0.445094   0.181862   0.063903   x 
            x  Ni         122         0.192978   0.061181   0.928632   x 
            x  Ni         123         0.065427   0.430627   0.438193   x 
            x  Ni         124         0.194669   0.307058   0.439389   x 
            x  Ni         125         0.063971   0.304266   0.312359   x 
            x  Ni         126         0.447651   0.303071   0.436715   x 
            x  Ni         127         0.443906   0.432492   0.309817   x 
            x  Ni         128         0.319998   0.306566   0.312177   x 
            x  Ni         129         0.071869   0.683635   0.440500   x 
            x  Ni         130         0.194031   0.552355   0.434331   x 
            x  Ni         131         0.192449   0.682982   0.311581   x 
            x  Ni         132         0.066933   0.557818   0.311803   x 
            x  Ni         133         0.316429   0.680132   0.438471   x 
            x  Ni         134         0.445791   0.560126   0.434346   x 
            x  Ni         135         0.314489   0.552757   0.309644   x 
            x  Ni         136         0.066972   0.060707   0.313903   x 
            x  Ni         137         0.070341   0.813696   0.316913   x 
            x  Ni         138         0.315048   0.937893   0.440243   x 
            x  Ni         139         0.444060   0.936397   0.314242   x 
            x  Ni         140         0.191262   0.937616   0.313593   x 
            x  Ni         141         0.194727   0.063944   0.441493   x 
            x  Ni         142         0.191121   0.184135   0.311586   x 
            x  Ni         143         0.318016   0.182923   0.439752   x 
            x  Ni         144         0.443771   0.178612   0.313284   x 
            x  Ni         145         0.065341   0.309458   0.564915   x 
            x  Ni         146         0.450582   0.305305   0.687002   x 
            x  Ni         147         0.325590   0.310445   0.561717   x 
            x  Ni         148         0.067111   0.678446   0.688912   x 
            x  Ni         149         0.064708   0.555894   0.564446   x 
            x  Ni         150         0.200301   0.547753   0.692019   x 
            x  Ni         151         0.446828   0.560296   0.688540   x 
            x  Ni         152         0.445058   0.685614   0.560668   x 
            x  Ni         153         0.325761   0.552969   0.562967   x 
            x  Ni         154         0.065128   0.931752   0.686567   x 
            x  Ni         155         0.193444   0.802499   0.684666   x 
            x  Ni         156         0.191680   0.933027   0.565428   x 
            x  Ni         157         0.318349   0.931749   0.688677   x 
            x  Ni         158         0.445857   0.809507   0.687002   x 
            x  Ni         159         0.444357   0.933491   0.565334   x 
            x  Ni         160         0.316069   0.806007   0.563820   x 
            x  Ni         161         0.065600   0.186306   0.686912   x 
            x  Ni         162         0.191403   0.059261   0.691308   x 
            x  Ni         163         0.068525   0.062366   0.566309   x 
            x  Ni         164         0.320902   0.186005   0.690275   x 
            x  Ni         165         0.446308   0.057520   0.687649   x 
            x  Ni         166         0.445741   0.181000   0.564580   x 
            x  Ni         167         0.318108   0.059597   0.568012   x 
            x  Ni         168         0.066440   0.431431   0.935033   x 
            x  Ni         169         0.194918   0.302880   0.935284   x 
            x  Ni         170         0.195592   0.318238   0.687289   x 
            x  Ni         171         0.063915   0.309015   0.808684   x 
            x  Ni         172         0.320755   0.431440   0.939480   x 
            x  Ni         173         0.447878   0.307714   0.939517   x 
            x  Ni         174         0.448082   0.432534   0.814667   x 
            x  Ni         175         0.324244   0.309974   0.812606   x 
            x  Ni         176         0.067220   0.810934   0.058604   x 
            x  Ni         177         0.194460   0.558448   0.937831   x 
            x  Ni         178         0.199944   0.680072   0.810565   x 
            x  Ni         179         0.066454   0.557297   0.812437   x 
            x  Ni         180         0.442671   0.431828   0.065922   x 
            x  Ni         181         0.443713   0.684734   0.816365   x 
            x  Ni         182         0.445393   0.559961   0.943755   x 
            x  Ni         183         0.068182   0.932514   0.930560   x 
            x  Ni         184         0.194823   0.811521   0.934717   x 
            x  Ni         185         0.066733   0.807090   0.808067   x 
            x  Ni         186         0.445027   0.810620   0.940793   x 
            x  Ni         187         0.444838   0.933841   0.813079   x 
            x  Ni         188         0.321262   0.809439   0.813368   x 
            x  Ni         189         0.066439   0.183155   0.930668   x 
            x  Ni         190         0.320336   0.057861   0.811390   x 
            x  Ni         191         0.446349   0.057545   0.937921   x 
            x  Ni         192         0.447073   0.182444   0.811957   x 
            xxxxxxxxxxxxxxxxxxxxxxxxxxxxxxxxxxxxxxxxxxxxxxxxxxxxxxxxxxxx
 
 
                         No user defined ionic velocities
 
                           -------------------------------
                                   Details of Species
                           -------------------------------
 
                               Mass of species in AMU
                                    Al   26.9815400
                                    Ni   58.6934000
 
                          Electric Quadrupole Moment (Barn)
                                    Al    0.1466000 Isotope 27
                                    Ni    0.1620000 Isotope 61
 
                          Files used for pseudopotentials:
                                    Al 3|2.2|2.2|1.4|4|5|5|30:31:32U2U2
                                    Ni 3|2.4|2.4|1.0|8|9|10|40:41:32U2U2(qc=5.5)
 
                           -------------------------------
                              k-Points For BZ Sampling
                           -------------------------------
                       MP grid size for SCF calculation is  1  1  1
                            with an offset of   0.000  0.000  0.000
                       Number of kpoints used =             1
 
                           -------------------------------
                               Symmetry and Constraints
                           -------------------------------
 
                      Maximum deviation from symmetry =  0.00000         ANG
 
                      Number of symmetry operations   =           1
                      Number of ionic constraints     =           3
                      Point group of crystal =     1: C1, 1, 1
                      Space group of crystal =     1: P1, P 1
 
             Set iprint > 1 for details on symmetry rotations/translations
 
                         Centre of mass is constrained
             Set iprint > 1 for details of linear ionic constraints
 
                         Number of cell constraints= 6
                         Cell constraints are:  0 0 0 0 0 0
 
                         External pressure/stress (GPa)
                          0.00000   0.00000   0.00000
                                    0.00000   0.00000
                                              0.00000
 
+---------------- MEMORY AND SCRATCH DISK ESTIMATES PER PROCESS --------------+
|                                                     Memory          Disk    |
| Baseline code, static data and system overhead      855.0 MB         0.0 MB |
| BLAS internal memory storage                          0.0 MB         0.0 MB |
| Model and support data                              349.7 MB         0.0 MB |
| Electronic energy minimisation requirements          97.8 MB         0.0 MB |
| Force calculation requirements                        2.3 MB         0.0 MB |
|                                               ----------------------------- |
| Approx. total storage required per process         1302.5 MB         0.0 MB |
|                                                                             |
| Requirements will fluctuate during execution and may exceed these estimates |
+-----------------------------------------------------------------------------+
Calculating approximate eigenstates for fixed initial Hamiltonian
Cut-off for approx. calculation is  550.359 eV
Resetting cut-off to  900.000 eV
Calculating total energy with cut-off of  900.000 eV.
------------------------------------------------------------------------ <-- SCF
SCF loop      Energy           Fermi           Energy gain       Timer   <-- SCF
                               energy          per atom          (sec)   <-- SCF
------------------------------------------------------------------------ <-- SCF
Initial  -2.71878694E+005  0.00000000E+000                      1469.43  <-- SCF
      1  -2.71334186E+005  3.13132818E+000  -2.13532454E+000    1534.61  <-- SCF
      2  -2.71490898E+005  3.15897994E+000   6.14558054E-001    1611.93  <-- SCF
      3  -2.72643404E+005  8.88234492E+000   4.51962891E+000    1688.45  <-- SCF
      4  -2.72701207E+005  8.88763995E+000   2.26678942E-001    1758.12  <-- SCF
      5  -2.71605436E+005  6.41574145E+000  -4.29714052E+000    1856.03  <-- SCF
      6  -2.71756403E+005  6.39447637E+000   5.92028240E-001    1929.83  <-- SCF
      7  -2.71451926E+005  4.85092040E+000  -1.19402750E+000    2014.96  <-- SCF
      8  -2.71395029E+005  4.43663061E+000  -2.23125393E-001    2094.98  <-- SCF
      9  -2.71388698E+005  4.40688043E+000  -2.48279414E-002    2167.67  <-- SCF
     10  -2.71392213E+005  4.46316628E+000   1.37860912E-002    2235.74  <-- SCF
     11  -2.72022739E+005  5.82174718E+000   2.47265115E+000    2314.53  <-- SCF
     12  -2.71542806E+005  4.76495563E+000  -1.88209072E+000    2414.80  <-- SCF
     13  -2.71435566E+005  4.24676797E+000  -4.20550907E-001    2491.82  <-- SCF
     14  -2.71404198E+005  4.23057941E+000  -1.23010568E-001    2562.70  <-- SCF
     15  -2.71395765E+005  4.30412424E+000  -3.30720555E-002    2632.14  <-- SCF
     16  -2.71392469E+005  4.33200888E+000  -1.29231473E-002    2698.17  <-- SCF
     17  -2.71389708E+005  4.33489339E+000  -1.08269682E-002    2767.55  <-- SCF
     18  -2.71387266E+005  4.33604331E+000  -9.57672408E-003    2833.95  <-- SCF
     19  -2.71385993E+005  4.33869393E+000  -4.99491694E-003    2901.31  <-- SCF
     20  -2.71385787E+005  4.36656376E+000  -8.05052490E-004    2970.98  <-- SCF
     21  -2.71385354E+005  4.38251994E+000  -1.69838417E-003    3038.21  <-- SCF
     22  -2.71385391E+005  4.38347984E+000   1.44143471E-004    3110.04  <-- SCF
     23  -2.71385184E+005  4.37663310E+000  -8.11561069E-004    3175.87  <-- SCF
     24  -2.71385128E+005  4.37694958E+000  -2.21877663E-004    3245.44  <-- SCF
     25  -2.71385144E+005  4.38071730E+000   6.58578445E-005    3310.67  <-- SCF
     26  -2.71385129E+005  4.38198469E+000  -6.07754215E-005    3377.86  <-- SCF
     27  -2.71385126E+005  4.37977870E+000  -1.20916531E-005    3442.33  <-- SCF
     28  -2.71385129E+005  4.37831496E+000   1.25061040E-005    3510.78  <-- SCF
     29  -2.71385124E+005  4.37922238E+000  -1.81179763E-005    3574.57  <-- SCF
     30  -2.71385123E+005  4.37968043E+000  -6.42159247E-006    3630.37  <-- SCF
     31  -2.71385123E+005  4.37998405E+000   7.78037334E-007    3673.68  <-- SCF
     32  -2.71385123E+005  4.38004582E+000  -4.52989072E-007    3717.94  <-- SCF
------------------------------------------------------------------------ <-- SCF
 
Integrated Spin Density     =    0.778788E-01 hbar/2
Integrated |Spin Density|   =    0.146534     hbar/2
 
Final energy, E             =  -271380.6281725     eV
Final free energy (E-TS)    =  -271385.1227922     eV
(energies not corrected for finite basis set)
 
NB est. 0K energy (E-0.5TS)      =  -271382.8754823     eV
 

Writing analysis data to castep.castep_bin

Writing model to castep.check
 
+---------------- MEMORY AND SCRATCH DISK ESTIMATES PER PROCESS --------------+
|                                                     Memory          Disk    |
| Model and support data                              360.0 MB         0.0 MB |
| Electronic energy minimisation requirements          97.8 MB         0.0 MB |
| Geometry minimisation requirements                  126.4 MB         0.0 MB |
|                                               ----------------------------- |
| Approx. total storage required per process          584.2 MB         0.0 MB |
|                                                                             |
| Requirements will fluctuate during execution and may exceed these estimates |
+-----------------------------------------------------------------------------+
 
 
 ************************************** Forces **************************************
 *                                                                                  *
 *                           Cartesian components (eV/A)                            *
 * -------------------------------------------------------------------------------- *
 *                         x                    y                    z              *
 *                                                                                  *
 * Al              1     -0.11920             -0.00531             -0.02735         *
 * Al              2      0.04686             -0.02579             -0.00488         *
 * Al              3     -0.10607             -0.02160              0.00871         *
 * Al              4      0.08451             -0.01041              0.00541         *
 * Al              5     -0.08393              0.00035             -0.13412         *
 * Al              6      0.12069              0.02613              0.00552         *
 * Al              7     -0.16065              0.03730             -0.02792         *
 * Al              8      0.07049              0.01724             -0.02542         *
 * Al              9     -0.08850              0.04956             -0.02237         *
 * Al             10      0.06376              0.01084             -0.02631         *
 * Al             11     -0.05695             -0.13403             -0.01544         *
 * Al             12      0.10609              0.00292             -0.01327         *
 * Al             13      0.35012              0.07313             -0.01305         *
 * Al             14      0.05178             -0.04114             -0.03480         *
 * Al             15     -0.02805              0.00992             -0.11267         *
 * Al             16      0.08164              0.03087             -0.02629         *
 * Al             17     -0.20423              0.05500              0.01197         *
 * Al             18      0.05163              0.01610             -0.00700         *
 * Al             19     -0.16422             -0.08042             -0.01346         *
 * Al             20      0.08850              0.00802             -0.01550         *
 * Al             21     -0.02969              0.02754              0.12931         *
 * Al             22      0.11412             -0.00532              0.00053         *
 * Al             23      0.01149              0.00692              0.11775         *
 * Al             24      0.02623             -0.00033             -0.01323         *
 * Al             25     -0.12370             -0.05821              0.01635         *
 * Al             26      0.00650             -0.02379              0.01299         *
 * Al             27     -0.12154             -0.00879              0.02641         *
 * Al             28      0.07263              0.02521              0.00640         *
 * Al             29     -0.15298              0.05077              0.01058         *
 * Al             30      0.05727              0.00508              0.01689         *
 * Al             31     -0.18873              0.02352              0.01423         *
 * Al             32      0.09117             -0.02680              0.03284         *
 * Al             33      0.13619              0.10221              0.12178         *
 * Al             34      0.30794              0.16205              0.29314         *
 * Al             35     -0.03439             -0.00787             -0.07300         *
 * Al             36      0.16422              0.04913              0.21384         *
 * Al             37     -0.04982             -0.29128             -0.04830         *
 * Al             38      0.04884              0.06856              0.19110         *
 * Al             39     -0.56803             -0.28602              0.53428         *
 * Al             40      0.14748             -0.17095             -0.03727         *
 * Al             41     -0.76213             -0.03328              0.60034         *
 * Al             42      0.21573              0.29866             -0.07115         *
 * Al             43     -0.07462             -0.17706             -0.05877         *
 * Al             44      0.20645             -0.15932             -0.22165         *
 * Al             45     -0.03985              0.00796              0.15139         *
 * Al             46     -0.04911              0.09216             -0.12725         *
 * Al             47     -0.62716             -0.08666              0.03497         *
 * Al             48     -0.24025             -0.07023             -0.02796         *
 * Al             49      0.01686              0.16375              0.13481         *
 * Al             50     -0.29663              0.04936             -0.04697         *
 * Al             51     -0.52013             -0.08898             -0.66783         *
 * Al             52     -0.12735              0.06224              0.20272         *
 * Al             53     -0.60668             -0.02760             -0.64771         *
 * Al             54      0.09660             -0.06169             -0.17071         *
 * Al             55     -0.18061             -0.19736             -0.04070         *
 * Al             56      0.24057              0.00552             -0.06592         *
 * Al             57     -0.20279             -0.10979             -0.11901         *
 * Al             58     -0.08724              0.03103              0.13463         *
 * Al             59     -0.00602              0.08976             -0.27426         *
 * Al             60     -0.19253             -0.03145             -0.14340         *
 * Al             61      0.01002              0.04324              0.01092         *
 * Al             62     -0.15723             -0.02214              0.25783         *
 * Al             63     -0.03815              0.11291             -0.00653         *
 * Ni              1     -0.00360              0.04966             -0.04639         *
 * Ni              2      0.00673             -0.00573              0.01486         *
 * Ni              3      0.02497              0.01871              0.01678         *
 * Ni              4      0.09621             -0.01161             -0.00178         *
 * Ni              5      0.18477             -0.03362             -0.05040         *
 * Ni              6      0.16419              0.04398             -0.05377         *
 * Ni              7      0.11897              0.20433              0.30832         *
 * Ni              8      0.02793             -0.01306              0.01578         *
 * Ni              9      0.03865              0.00370             -0.02295         *
 * Ni             10     -0.00919              0.00278              0.02349         *
 * Ni             11      0.37580             -0.05817             -0.06588         *
 * Ni             12      0.22215              0.09942             -0.03264         *
 * Ni             13      0.10138             -0.15309              0.17967         *
 * Ni             14     -0.06003             -0.01234              0.00361         *
 * Ni             15     -0.09133             -0.02430              0.03428         *
 * Ni             16     -0.02204              0.00159             -0.01433         *
 * Ni             17      0.17582              0.11659              0.00992         *
 * Ni             18      0.14590             -0.00562             -0.15157         *
 * Ni             19     -0.00147             -0.00486              0.08572         *
 * Ni             20      0.05394              0.00913              0.00596         *
 * Ni             21     -0.00892             -0.00416             -0.00930         *
 * Ni             22      0.02595              0.00570             -0.02281         *
 * Ni             23      0.20456             -0.00657             -0.04582         *
 * Ni             24      0.06053             -0.13209             -0.13553         *
 * Ni             25      0.22697              0.04937             -0.20928         *
 * Ni             26      0.07658              0.05931              0.02713         *
 * Ni             27      0.07917              0.00012             -0.03165         *
 * Ni             28      0.03233              0.01638             -0.05869         *
 * Ni             29      0.11189              0.06370             -0.00219         *
 * Ni             30      0.26253             -0.06312             -0.11328         *
 * Ni             31      0.14182              0.21006             -0.26475         *
 * Ni             32      0.00355             -0.03269              0.03602         *
 * Ni             33     -0.05333              0.02498              0.00632         *
 * Ni             34     -0.03401             -0.06972             -0.02491         *
 * Ni             35      0.24148             -0.00618             -0.00865         *
 * Ni             36      0.31113              0.09476              0.05437         *
 * Ni             37      0.21007             -0.05086             -0.07022         *
 * Ni             38      0.02706             -0.02811             -0.00093         *
 * Ni             39     -0.07615              0.00063              0.02291         *
 * Ni             40     -0.01809             -0.04012             -0.02286         *
 * Ni             41      0.41130              0.00723             -0.02482         *
 * Ni             42      0.26966              0.06500             -0.05748         *
 * Ni             43      0.09066             -0.04665              0.03026         *
 * Ni             44      0.09349             -0.00686             -0.00991         *
 * Ni             45     -0.03336             -0.01127              0.02640         *
 * Ni             46      0.02135              0.06536             -0.01130         *
 * Ni             47     -0.08050              0.14745              0.10356         *
 * Ni             48     -0.01182             -0.11483             -0.09767         *
 * Ni             49      0.20614             -0.05538              0.12874         *
 * Ni             50      0.00369             -0.02540             -0.02931         *
 * Ni             51     -0.09243              0.01211             -0.00863         *
 * Ni             52      0.08389             -0.01356              0.01141         *
 * Ni             53     -0.08307             -0.22764             -0.08231         *
 * Ni             54     -0.14778             -0.05844             -0.21746         *
 * Ni             55      0.09387              0.00156             -0.15651         *
 * Ni             56      0.02049              0.02571             -0.05057         *
 * Ni             57      0.02136              0.02205              0.01284         *
 * Ni             58     -0.00556              0.02254             -0.02229         *
 * Ni             59     -0.03923              0.20676              0.00069         *
 * Ni             60      0.11828             -0.12960             -0.04940         *
 * Ni             61      0.09828              0.05352             -0.16265         *
 * Ni             62     -0.00637             -0.00979              0.00480         *
 * Ni             63     -0.11306              0.00092             -0.05007         *
 * Ni             64     -0.03756              0.01153              0.01503         *
 * Ni             65      0.02163             -0.11483              0.09610         *
 * Ni             66      0.14861              0.02788             -0.04087         *
 * Ni             67      0.08397              0.00069             -0.14624         *
 * Ni             68     -0.00668             -0.00411             -0.00457         *
 * Ni             69     -0.01880             -0.03905             -0.02106         *
 * Ni             70      0.00370             -0.03376              0.00261         *
 * Ni             71     -0.22592              0.04909             -0.50047         *
 * Ni             72     -0.07583             -0.03622              0.11564         *
 * Ni             73      0.10084             -0.00707              0.05942         *
 * Ni             74      0.02734             -0.00313             -0.00355         *
 * Ni             75      0.09730             -0.00892              0.02695         *
 * Ni             76     -0.00453             -0.02877              0.04003         *
 * Ni             77      0.08994             -0.06333             -0.12907         *
 * Ni             78     -0.13116              0.00948              0.18457         *
 * Ni             79      0.11089             -0.03678              0.12874         *
 * Ni             80      0.03461              0.03152              0.00812         *
 * Ni             81      0.00956              0.02409             -0.00262         *
 * Ni             82      0.00119             -0.00761             -0.00512         *
 * Ni             83      0.11149             -0.05072             -0.11905         *
 * Ni             84      0.00828             -0.03148             -0.13962         *
 * Ni             85      0.12003             -0.00823              0.04527         *
 * Ni             86     -0.00193             -0.00334             -0.01277         *
 * Ni             87     -0.01270             -0.01087             -0.00502         *
 * Ni             88     -0.05445              0.02727              0.01972         *
 * Ni             89      0.14195              0.12014             -0.15593         *
 * Ni             90     -0.23428             -0.34923             -0.13099         *
 * Ni             91      0.12769              0.05919             -0.00799         *
 * Ni             92      0.00583             -0.03078              0.01164         *
 * Ni             93     -0.00665             -0.00297             -0.03050         *
 * Ni             94      0.01370              0.01395              0.01806         *
 * Ni             95     -0.11164             -0.07213              0.09301         *
 * Ni             96     -0.34598              0.26485             -0.13292         *
 * Ni             97     -0.27196              0.33442              0.07265         *
 * Ni             98      0.01431             -0.17695              0.17123         *
 * Ni             99      0.01136              0.29345              0.14253         *
 * Ni            100      0.22979              0.05784              0.12065         *
 * Ni            101     -0.20642              0.02945             -0.06740         *
 * Ni            102      0.03227             -0.10373              0.18160         *
 * Ni            103      0.09231              0.02452              0.06353         *
 * Ni            104      0.07942             -0.25491              0.44910         *
 * Ni            105     -0.06894             -0.17835              0.04127         *
 * Ni            106      0.32272             -0.05977              0.05464         *
 * Ni            107     -0.18479             -0.16253              0.00347         *
 * Ni            108     -0.07149             -0.00286              0.00532         *
 * Ni            109      0.01426             -0.00177             -0.04055         *
 * Ni            110     -0.16386             -0.17172              0.15411         *
 * Ni            111     -0.22199             -0.05156             -0.06030         *
 * Ni            112      0.03490             -0.14383             -0.04453         *
 * Ni            113      0.26087              0.13586              0.07108         *
 * Ni            114      0.01601             -0.02193              0.00967         *
 * Ni            115     -0.05936              0.01391              0.14029         *
 * Ni            116      0.08942              0.23288              0.17832         *
 * Ni            117      0.07574              0.01925              0.12947         *
 * Ni            118      0.11640             -0.00295              0.13400         *
 * Ni            119      0.16211              0.09355              0.02872         *
 * Ni            120     -0.02853              0.06400             -0.25566         *
 * Ni            121     -0.11840             -0.06305              0.24273         *
 * Ni            122     -0.17062             -0.05722              0.13310         *
 * Ni            123     -0.08677              0.15179             -0.14715         *
 * Ni            124      0.09932             -0.00539             -0.02329         *
 * Ni            125      0.16211              0.29683             -0.10338         *
 * Ni            126     -0.27521             -0.24436              0.06113         *
 * Ni            127     -0.04938             -0.05115             -0.11304         *
 * Ni            128     -0.17836             -0.07967              0.00696         *
 * Ni            129     -0.03770              0.15731             -0.11125         *
 * Ni            130      0.04745             -0.06525              0.00640         *
 * Ni            131      0.03290              0.00579              0.09858         *
 * Ni            132      0.09173             -0.02299              0.04574         *
 * Ni            133      0.12268             -0.12616             -0.15429         *
 * Ni            134     -0.07740              0.11677              0.19485         *
 * Ni            135     -0.18495              0.05414              0.09119         *
 * Ni            136     -0.18956              0.06288             -0.14106         *
 * Ni            137     -0.34799             -0.39846             -0.02365         *
 * Ni            138      0.11973              0.08946             -0.02213         *
 * Ni            139     -0.12935             -0.03068             -0.08389         *
 * Ni            140      0.12628             -0.01966             -0.00436         *
 * Ni            141     -0.13578              0.08634              0.20322         *
 * Ni            142      0.17768              0.02076             -0.11487         *
 * Ni            143      0.32752              0.19899             -0.22760         *
 * Ni            144     -0.09663             -0.05391              0.01190         *
 * Ni            145      0.17010              0.04457             -0.11254         *
 * Ni            146     -0.35598             -0.22741              0.20762         *
 * Ni            147     -0.04250             -0.07305              0.05432         *
 * Ni            148      0.22192              0.10777             -0.03302         *
 * Ni            149      0.20290             -0.05994             -0.25304         *
 * Ni            150      0.02322             -0.07512              0.23467         *
 * Ni            151     -0.31657              0.06437              0.13032         *
 * Ni            152      0.03688             -0.14415             -0.04335         *
 * Ni            153     -0.06673              0.17188             -0.22164         *
 * Ni            154      0.19454              0.21400              0.02239         *
 * Ni            155     -0.00965             -0.12874              0.07349         *
 * Ni            156     -0.04993             -0.13041             -0.28897         *
 * Ni            157      0.25171              0.05439             -0.25590         *
 * Ni            158     -0.17878              0.11392              0.24186         *
 * Ni            159     -0.15480             -0.05266              0.11325         *
 * Ni            160     -0.25113              0.16098              0.21490         *
 * Ni            161     -0.02877              0.06408              0.10992         *
 * Ni            162     -0.00848             -0.12870              0.07973         *
 * Ni            163      0.00527              0.06143              0.25632         *
 * Ni            164      0.33456             -0.09860             -0.08259         *
 * Ni            165     -0.32814              0.04530              0.17471         *
 * Ni            166     -0.10898              0.12422             -0.01480         *
 * Ni            167     -0.05740             -0.15524              0.09779         *
 * Ni            168     -0.24618              0.15709              0.24815         *
 * Ni            169     -0.02722             -0.12550             -0.05878         *
 * Ni            170      0.06657              0.28561             -0.03198         *
 * Ni            171      0.25479              0.11828              0.32563         *
 * Ni            172      0.26001             -0.14568              0.00137         *
 * Ni            173     -0.26721              0.26877             -0.07285         *
 * Ni            174     -0.06109             -0.00056              0.01752         *
 * Ni            175      0.03038             -0.07068             -0.02316         *
 * Ni            176     -0.02161             -0.06097              0.21681         *
 * Ni            177      0.06055             -0.01419             -0.17869         *
 * Ni            178      0.07427              0.08868             -0.22451         *
 * Ni            179      0.29050             -0.07763              0.06161         *
 * Ni            180     -0.06991              0.02697             -0.11816         *
 * Ni            181     -0.09653             -0.01958              0.06524         *
 * Ni            182     -0.17415             -0.17271             -0.10018         *
 * Ni            183      0.03221              0.10038              0.35064         *
 * Ni            184     -0.15263              0.15941              0.01000         *
 * Ni            185      0.11317             -0.06027              0.00920         *
 * Ni            186     -0.00341             -0.09823             -0.14097         *
 * Ni            187     -0.06984             -0.10588             -0.19191         *
 * Ni            188      0.05258              0.18212             -0.06995         *
 * Ni            189     -0.08370              0.09734              0.27974         *
 * Ni            190      0.13489             -0.01340             -0.20262         *
 * Ni            191     -0.05788              0.04152             -0.11840         *
 * Ni            192      0.09256             -0.00051             -0.13385         *
 *                                                                                  *
 ************************************************************************************
 LBFGS: finished iteration     0 with enthalpy= -2.71385123E+005 eV
  
 +-----------+-----------------+-----------------+------------+-----+ <-- LBFGS
 | Parameter |      value      |    tolerance    |    units   | OK? | <-- LBFGS
 +-----------+-----------------+-----------------+------------+-----+ <-- LBFGS
 |  dE/ion   |   0.000000E+000 |   2.000000E-005 |         eV | No  | <-- LBFGS
 |  |F|max   |   9.707544E-001 |   5.000000E-002 |       eV/A | No  | <-- LBFGS
 |  |dR|max  |   0.000000E+000 |   1.000000E-003 |          A | No  | <-- LBFGS
 +-----------+-----------------+-----------------+------------+-----+ <-- LBFGS
  

================================================================================
 Starting LBFGS iteration          1 ...
================================================================================
  
 +------------+-------------+-------------+-----------------+ <-- min LBFGS
 |    Step    |   lambda    |   F.delta'  |    enthalpy     | <-- min LBFGS
 +------------+-------------+-------------+-----------------+ <-- min LBFGS
 |  previous  |    0.000000 |    2.079738 |  -271385.122792 | <-- min LBFGS
 +------------+-------------+-------------+-----------------+ <-- min LBFGS
  

--------------------------------------------------------------------------------
 LBFGS: starting iteration         1 with trial guess (lambda=  1.000000)
--------------------------------------------------------------------------------
 
                           -------------------------------
                                     Cell Contents
                           -------------------------------
 
            xxxxxxxxxxxxxxxxxxxxxxxxxxxxxxxxxxxxxxxxxxxxxxxxxxxxxxxxxxxxxxxxx
            x  Element         Atom        Fractional coordinates of atoms  x
            x                 Number           u          v          w      x
            x---------------------------------------------------------------x
            x  Al                1         0.570688   0.307408   0.064467   x
            x  Al                2         0.818254   0.309201   0.063219   x
            x  Al                3         0.569874   0.559260   0.065840   x
            x  Al                4         0.817604   0.558235   0.063659   x
            x  Al                5         0.575301   0.809629   0.060328   x
            x  Al                6         0.819112   0.807798   0.062790   x
            x  Al                7         0.572228   0.058444   0.063467   x
            x  Al                8         0.819975   0.059143   0.062439   x
            x  Al                9         0.569599   0.305961   0.312685   x
            x  Al               10         0.817817   0.308656   0.313935   x
            x  Al               11         0.573345   0.554855   0.311889   x
            x  Al               12         0.816705   0.558096   0.313977   x
            x  Al               13         0.577379   0.814389   0.313145   x
            x  Al               14         0.819195   0.808316   0.313552   x
            x  Al               15         0.574361   0.057118   0.309356   x
            x  Al               16         0.819977   0.058969   0.313361   x
            x  Al               17         0.570260   0.306342   0.562138   x
            x  Al               18         0.817082   0.309539   0.563356   x
            x  Al               19         0.567324   0.559700   0.561508   x
            x  Al               20         0.816101   0.558297   0.563093   x
            x  Al               21         0.574652   0.809401   0.566259   x
            x  Al               22         0.818588   0.807343   0.564026   x
            x  Al               23         0.577139   0.057429   0.569301   x
            x  Al               24         0.819627   0.058857   0.564175   x
            x  Al               25         0.571620   0.308620   0.813996   x
            x  Al               26         0.817117   0.310213   0.813224   x
            x  Al               27         0.568922   0.558945   0.814881   x
            x  Al               28         0.816573   0.557896   0.813055   x
            x  Al               29         0.570684   0.808504   0.814482   x
            x  Al               30         0.819231   0.807158   0.813545   x
            x  Al               31         0.572535   0.057944   0.813114   x
            x  Al               32         0.820044   0.059081   0.813984   x
            x  Al               33         0.328691   0.182479   0.934428   x
            x  Al               34         0.056350   0.057850   0.808081   x
            x  Al               35         0.192979   0.190305   0.805076   x
            x  Al               36         0.321499   0.935469   0.939698   x
            x  Al               37         0.192679   0.929504   0.805056   x
            x  Al               38         0.318588   0.689977   0.944297   x
            x  Al               39         0.074685   0.687535   0.929668   x
            x  Al               40         0.198702   0.188599   0.572711   x
            x  Al               41         0.067233   0.805444   0.566017   x
            x  Al               42         0.326132   0.685005   0.688952   x
            x  Al               43         0.194371   0.667418   0.563667   x
            x  Al               44         0.337276   0.428712   0.680763   x
            x  Al               45         0.328533   0.555017   0.820017   x
            x  Al               46         0.192223   0.432867   0.556865   x
            x  Al               47         0.063726   0.435386   0.688541   x
            x  Al               48         0.317504   0.060371   0.312324   x
            x  Al               49         0.440421   0.057078   0.445085   x
            x  Al               50         0.185825   0.054906   0.185584   x
            x  Al               51         0.068438   0.185161   0.441738   x
            x  Al               52         0.433458   0.814672   0.439826   x
            x  Al               53         0.070866   0.945096   0.442300   x
            x  Al               54         0.201488   0.808497   0.432171   x
            x  Al               55         0.432121   0.677757   0.310312   x
            x  Al               56         0.334574   0.430825   0.439267   x
            x  Al               57         0.188482   0.425153   0.313507   x
            x  Al               58         0.187094   0.186343   0.057710   x
            x  Al               59         0.434350   0.816949   0.185478   x
            x  Al               60         0.191698   0.811543   0.187872   x
            x  Al               61         0.191590   0.426145   0.055730   x
            x  Al               62         0.193502   0.427338   0.821522   x
            x  Al               63         0.188906   0.565171   0.184533   x
            x  Ni                1         0.568084   0.431584   0.187870   x
            x  Ni                2         0.694190   0.307828   0.188621   x
            x  Ni                3         0.693656   0.433456   0.064145   x
            x  Ni                4         0.817455   0.433619   0.189092   x
            x  Ni                5         0.942307   0.309344   0.188494   x
            x  Ni                6         0.942049   0.434083   0.063301   x
            x  Ni                7         0.564551   0.687904   0.191595   x
            x  Ni                8         0.693037   0.558928   0.188587   x
            x  Ni                9         0.693545   0.683083   0.064433   x
            x  Ni               10         0.818572   0.683029   0.188589   x
            x  Ni               11         0.941986   0.558332   0.188688   x
            x  Ni               12         0.942547   0.682770   0.063187   x
            x  Ni               13         0.569282   0.932591   0.186070   x
            x  Ni               14         0.695871   0.808928   0.187467   x
            x  Ni               15         0.696460   0.934202   0.062185   x
            x  Ni               16         0.820187   0.933576   0.187594   x
            x  Ni               17         0.942751   0.807897   0.188151   x
            x  Ni               18         0.943312   0.933124   0.062728   x
            x  Ni               19         0.569018   0.182484   0.187750   x
            x  Ni               20         0.696299   0.058327   0.186931   x
            x  Ni               21         0.694845   0.183629   0.062931   x
            x  Ni               22         0.819214   0.183987   0.188065   x
            x  Ni               23         0.943230   0.058860   0.187981   x
            x  Ni               24         0.943045   0.184530   0.062955   x
            x  Ni               25         0.562048   0.432040   0.441244   x
            x  Ni               26         0.691788   0.307455   0.438031   x
            x  Ni               27         0.692024   0.431824   0.314580   x
            x  Ni               28         0.816727   0.433648   0.438718   x
            x  Ni               29         0.942225   0.309359   0.438834   x
            x  Ni               30         0.941792   0.433954   0.313815   x
            x  Ni               31         0.563836   0.688642   0.433521   x
            x  Ni               32         0.690685   0.558871   0.438138   x
            x  Ni               33         0.693679   0.683939   0.313275   x
            x  Ni               34         0.817650   0.682941   0.438636   x
            x  Ni               35         0.941829   0.558434   0.438703   x
            x  Ni               36         0.942278   0.682962   0.313710   x
            x  Ni               37         0.568176   0.934975   0.440398   x
            x  Ni               38         0.694878   0.809433   0.439114   x
            x  Ni               39         0.697440   0.934899   0.313154   x
            x  Ni               40         0.820065   0.933467   0.439062   x
            x  Ni               41         0.942697   0.807807   0.438871   x
            x  Ni               42         0.943026   0.933270   0.313439   x
            x  Ni               43         0.568974   0.177783   0.438281   x
            x  Ni               44         0.695443   0.057651   0.438960   x
            x  Ni               45         0.694962   0.182745   0.313172   x
            x  Ni               46         0.818727   0.183910   0.438659   x
            x  Ni               47         0.943238   0.058830   0.438947   x
            x  Ni               48         0.942747   0.184203   0.313542   x
            x  Ni               49         0.563656   0.433781   0.683306   x
            x  Ni               50         0.692612   0.309591   0.688199   x
            x  Ni               51         0.690933   0.433685   0.562341   x
            x  Ni               52         0.816577   0.434352   0.687934   x
            x  Ni               53         0.942348   0.309889   0.688349   x
            x  Ni               54         0.941906   0.434224   0.563479   x
            x  Ni               55         0.567443   0.684527   0.689568   x
            x  Ni               56         0.690524   0.558328   0.687817   x
            x  Ni               57         0.691777   0.682957   0.562499   x
            x  Ni               58         0.817360   0.682051   0.688196   x
            x  Ni               59         0.942028   0.558386   0.688197   x
            x  Ni               60         0.942265   0.682691   0.563631   x
            x  Ni               61         0.570524   0.932735   0.690696   x
            x  Ni               62         0.695252   0.807622   0.689950   x
            x  Ni               63         0.696967   0.933150   0.564832   x
            x  Ni               64         0.820084   0.932775   0.689389   x
            x  Ni               65         0.942848   0.807319   0.688605   x
            x  Ni               66         0.943131   0.933038   0.564040   x
            x  Ni               67         0.571321   0.182274   0.689633   x
            x  Ni               68         0.697558   0.058299   0.690559   x
            x  Ni               69         0.695485   0.183722   0.563794   x
            x  Ni               70         0.818897   0.185007   0.688980   x
            x  Ni               71         0.943143   0.058932   0.688690   x
            x  Ni               72         0.942563   0.184486   0.563816   x
            x  Ni               73         0.568024   0.433790   0.941166   x
            x  Ni               74         0.693265   0.308974   0.938859   x
            x  Ni               75         0.690453   0.434400   0.812628   x
            x  Ni               76         0.817124   0.434064   0.937988   x
            x  Ni               77         0.942568   0.309792   0.937903   x
            x  Ni               78         0.942114   0.434283   0.813049   x
            x  Ni               79         0.568203   0.684286   0.939343   x
            x  Ni               80         0.692467   0.558437   0.939292   x
            x  Ni               81         0.693187   0.682533   0.813762   x
            x  Ni               82         0.818069   0.682284   0.938427   x
            x  Ni               83         0.942236   0.558260   0.938110   x
            x  Ni               84         0.942406   0.682366   0.813188   x
            x  Ni               85         0.569616   0.934259   0.937555   x
            x  Ni               86         0.695692   0.808108   0.937590   x
            x  Ni               87         0.696000   0.933031   0.814112   x
            x  Ni               88         0.819986   0.933418   0.937913   x
            x  Ni               89         0.942920   0.807537   0.938071   x
[...]
            Ni 14  -- Ni 39                  0.02         0.00          2.58843
            Ni 43  -- Ni 144                 0.01         0.00          2.58846
            Ni 25  -- Ni 32                  0.03         0.00          2.58853
            Ni 105 -- Ni 131                 0.02        -0.00          2.58862
             Al 61 -- Ni 102                 0.16        -0.00          2.58868
            Ni 114 -- Ni 140                 0.05         0.00          2.58890
             Al 5  -- Ni 108                 0.16         0.00          2.58892
             Al 40 -- Ni 124                 0.20         0.00          2.58898
             Al 11 -- Ni 7                   0.20         0.00          2.58920
             Al 15 -- Ni 44                  0.20        -0.00          2.58926
            Ni 36  -- Ni 129                 0.11         0.00          2.58939
             Al 40 -- Ni 145                 0.17         0.00          2.58956
            Ni 28  -- Ni 51                  0.04         0.00          2.58957
            Ni 110 -- Ni 136                 0.06        -0.00          2.58969
            Ni 142 -- Ni 143                 0.05        -0.00          2.59029
             Al 14 -- Ni 16                  0.19         0.00          2.59055
            Ni 12  -- Ni 89                  0.03        -0.00          2.59072
            Ni 130 -- Ni 131                 0.12         0.00          2.59106
             Al 60 -- Ni 112                 0.17         0.00          2.59129
             Al 48 -- Ni 141                 0.18        -0.00          2.59156
            Ni 104 -- Ni 177                 0.05        -0.00          2.59168
            Ni 71  -- Ni 96                  0.01         0.00          2.59169
            Ni 133 -- Ni 135                 0.03         0.00          2.59179
            Ni 37  -- Ni 38                  0.07         0.00          2.59193
            Ni 67  -- Ni 165                 0.02         0.00          2.59199
            Ni 110 -- Ni 112                 0.05        -0.00          2.59206
             Al 61 -- Ni 97                  0.18         0.00          2.59223
            Ni 128 -- Ni 144                 0.14        -0.00          2.59261
            Ni 90  -- Ni 95                  0.01         0.00          2.59267
            Ni 183 -- Ni 185                 0.07        -0.00          2.59332
            Ni 169 -- Ni 171                -0.00        -0.00          2.59348
            Ni 13  -- Ni 120                 0.04         0.00          2.59353
            Ni 101 -- Ni 144                 0.09         0.00          2.59354
             Al 40 -- Ni 163                 0.16         0.00          2.59355
            Ni 174 -- Ni 182                 0.00         0.00          2.59356
            Ni 34  -- Ni 41                  0.06         0.00          2.59429
             Al 27 -- Ni 49                  0.18        -0.00          2.59507
             Al 12 -- Ni 32                  0.20        -0.00          2.59571
             Al 49 -- Ni 139                 0.18         0.00          2.59578
             Al 16 -- Ni 40                  0.19        -0.00          2.59594
             Al 43 -- Ni 150                 0.18         0.00          2.59615
            Ni 26  -- Ni 43                  0.06         0.00          2.59623
            Ni 116 -- Ni 118                 0.02        -0.00          2.59631
            Ni 145 -- Ni 170                -0.00         0.00          2.59653
            Ni 170 -- Ni 175                -0.01         0.00          2.59656
             Al 51 -- Ni 124                 0.19         0.00          2.59663
             Al 34 -- Ni 162                 0.16        -0.00          2.59672
            Ni 1   -- Ni 8                   0.03         0.00          2.59679
            Ni 129 -- Ni 132                 0.11        -0.00          2.59688
            Ni 60  -- Ni 65                  0.01         0.00          2.59697
             Al 63 -- Ni 97                  0.17         0.00          2.59709
            Ni 155 -- Ni 156                 0.06         0.00          2.59711
            Ni 59  -- Ni 78                 -0.00         0.00          2.59712
            Ni 41  -- Ni 66                 -0.03         0.00          2.59754
             Al 44 -- Ni 170                 0.16         0.00          2.59756
             Al 17 -- Ni 69                  0.18        -0.00          2.59771
            Ni 151 -- Ni 174                -0.04         0.00          2.59785
            Ni 13  -- Ni 139                -0.01         0.00          2.59786
            Ni 138 -- Ni 139                -0.01         0.00          2.59802
             Al 15 -- Ni 37                  0.19        -0.00          2.59803
            Ni 51  -- Ni 52                  0.03         0.00          2.59806
             Al 41 -- Ni 129                 0.20         0.00          2.59845
            Ni 151 -- Ni 152                 0.04         0.00          2.59860
            Ni 35  -- Ni 129                 0.10         0.00          2.59895
             Al 56 -- Ni 128                 0.15        -0.00          2.59919
            Ni 111 -- Ni 186                 0.08         0.00          2.59934
            Ni 13  -- Ni 20                  0.06         0.00          2.59943
             Al 56 -- Ni 135                 0.15         0.00          2.59982
            Ni 49  -- Ni 75                  0.01         0.00          2.60023
             Al 38 -- Ni 188                 0.17        -0.00          2.60049
            Ni 53  -- Ni 54                  0.00         0.00          2.60071
            Ni 41  -- Ni 42                  0.03         0.00          2.60127
             Al 3  -- Ni 180                 0.17         0.00          2.60156
             Al 60 -- Ni 113                 0.19        -0.00          2.60188
             Al 58 -- Ni 117                 0.15        -0.00          2.60197
            Ni 133 -- Ni 160                -0.02         0.00          2.60254
            Ni 68  -- Ni 69                  0.03         0.00          2.60254
            Ni 112 -- Ni 122                 0.11         0.00          2.60254
             Al 50 -- Ni 142                 0.15        -0.00          2.60259
            Ni 150 -- Ni 178                 0.08         0.00          2.60282
            Ni 155 -- Ni 157                 0.07         0.00          2.60315
            Ni 123 -- Ni 124                 0.02        -0.00          2.60322
            Ni 13  -- Ni 39                  0.01         0.00          2.60353
            Ni 117 -- Ni 122                 0.03         0.00          2.60381
            Ni 99  -- Ni 169                 0.01        -0.00          2.60414
             Al 22 -- Ni 57                  0.19        -0.00          2.60453
            Ni 54  -- Ni 59                  0.00         0.00          2.60457
            Ni 47  -- Ni 163                 0.06         0.00          2.60476
            Ni 138 -- Ni 159                 0.02         0.00          2.60485
            Ni 111 -- Ni 115                 0.04         0.00          2.60526
            Ni 25  -- Ni 27                  0.00         0.00          2.60569
            Ni 161 -- Ni 162                -0.01         0.00          2.60627
            Ni 95  -- Ni 96                  0.01         0.00          2.60628
            Ni 55  -- Ni 181                 0.06         0.00          2.60685
            Ni 152 -- Ni 158                 0.03         0.00          2.60739
            Ni 143 -- Ni 167                 0.01         0.00          2.60749
            Ni 113 -- Ni 139                 0.01         0.00          2.60855
            Ni 53  -- Ni 78                  0.00         0.00          2.60863
             Al 55 -- Ni 31                  0.17         0.00          2.60908
             Al 21 -- Ni 159                 0.16         0.00          2.60924
             Al 9  -- Ni 43                  0.19        -0.00          2.60928
            Ni 147 -- Ni 170                -0.02         0.00          2.60950
             Al 9  -- Ni 144                 0.19         0.00          2.60968
             Al 38 -- Ni 177                 0.17         0.00          2.60996
            Ni 178 -- Ni 185                 0.08        -0.00          2.61009
            Ni 173 -- Ni 192                -0.01         0.00          2.61042
             Al 34 -- Ni 122                 0.16        -0.00          2.61045
            Ni 129 -- Ni 130                 0.08         0.00          2.61057
            Ni 169 -- Ni 172                 0.01         0.00          2.61071
            Ni 130 -- Ni 153                -0.01         0.00          2.61084
             Al 51 -- Ni 163                 0.16        -0.00          2.61148
            Ni 71  -- Ni 90                  0.02         0.00          2.61180
            Ni 146 -- Ni 174                 0.01         0.00          2.61204
            Ni 121 -- Ni 173                 0.01         0.00          2.61257
             Al 11 -- Ni 107                 0.16         0.00          2.61284
             Al 38 -- Ni 178                 0.17        -0.00          2.61305
             Al 17 -- Ni 43                  0.17        -0.00          2.61307
            Ni 172 -- Ni 177                -0.02         0.00          2.61327
            Ni 117 -- Ni 191                 0.08         0.00          2.61350
             Al 58 -- Ni 122                 0.18        -0.00          2.61377
            Ni 156 -- Ni 167                 0.11         0.00          2.61397
            Ni 178 -- Ni 184                 0.03         0.00          2.61451
            Ni 115 -- Ni 117                 0.09         0.00          2.61520
             Al 61 -- Ni 104                 0.15        -0.00          2.61579
            Ni 168 -- Ni 177                 0.03        -0.00          2.61584
             Al 46 -- Ni 153                 0.15         0.00          2.61617
             Al 53 -- Ni 137                 0.18         0.00          2.61648
            Ni 127 -- Ni 134                 0.02         0.00          2.61695
             Al 48 -- Ni 120                 0.18        -0.00          2.61695
            Ni 65  -- Ni 66                  0.02         0.00          2.61720
            Ni 138 -- Ni 160                 0.05         0.00          2.61794
            Ni 158 -- Ni 181                -0.01         0.00          2.61796
             Al 21 -- Ni 31                  0.19         0.00          2.61857
            Ni 178 -- Ni 179                 0.06         0.00          2.61906
            Ni 152 -- Ni 160                 0.02         0.00          2.61927
             Al 40 -- Ni 143                 0.18        -0.00          2.61934
            Ni 130 -- Ni 149                -0.02         0.00          2.62021
             Al 35 -- Ni 122                 0.17         0.00          2.62036
            Ni 42  -- Ni 47                 -0.01         0.00          2.62150
             Al 36 -- Ni 122                 0.17         0.00          2.62155
            Ni 37  -- Ni 39                  0.01         0.00          2.62182
             Al 36 -- Ni 184                 0.17         0.00          2.62223
            Ni 140 -- Ni 141                 0.07        -0.00          2.62287
            Ni 110 -- Ni 118                 0.04        -0.00          2.62288
             Al 58 -- Ni 119                 0.16         0.00          2.62316
            Ni 102 -- Ni 109                -0.00         0.00          2.62380
             Al 5  -- Ni 7                   0.19         0.00          2.62402
            Ni 159 -- Ni 160                 0.09         0.00          2.62521
            Ni 136 -- Ni 141                 0.01        -0.00          2.62556
            Ni 65  -- Ni 148                 0.04         0.00          2.62607
             Al 43 -- Ni 155                 0.18        -0.00          2.62868
             Al 50 -- Ni 117                 0.14        -0.00          2.62871
             Al 47 -- Ni 150                 0.18        -0.00          2.62912
            Ni 156 -- Ni 157                 0.12        -0.00          2.62938
            Ni 102 -- Ni 108                 0.09         0.00          2.62950
             Al 44 -- Ni 175                 0.16        -0.00          2.63059
            Ni 158 -- Ni 160                 0.11         0.00          2.63065
             Al 5  -- Ni 115                 0.15         0.00          2.63113
            Ni 170 -- Ni 171                -0.02         0.00          2.63157
            Ni 124 -- Ni 125                 0.03        -0.00          2.63160
             Al 23 -- Ni 166                 0.14         0.00          2.63252
            Ni 134 -- Ni 135                 0.09        -0.00          2.63391
             Al 52 -- Ni 37                  0.15         0.00          2.63440
            Ni 162 -- Ni 164                 0.01         0.00          2.63472
            Ni 154 -- Ni 155                 0.06         0.00          2.63482
            Ni 114 -- Ni 138                 0.00         0.00          2.63483
            Ni 108 -- Ni 111                 0.02         0.00          2.63492
             Al 38 -- Ni 182                 0.16         0.00          2.63542
             Al 63 -- Ni 100                 0.16         0.00          2.63710
             Al 52 -- Ni 31                  0.16         0.00          2.63861
             Al 39 -- Ni 178                 0.18        -0.00          2.63868
            Ni 155 -- Ni 188                 0.03         0.00          2.63952
            Ni 150 -- Ni 153                -0.01         0.00          2.63969
             Al 11 -- Ni 31                  0.17        -0.00          2.64011
             Al 37 -- Ni 190                 0.15        -0.00          2.64015
            Ni 7   -- Ni 107                 0.01         0.00          2.64045
            Ni 31  -- Ni 32                  0.05         0.00          2.64121
             Al 23 -- Ni 159                 0.14         0.00          2.64156
            Ni 156 -- Ni 162                 0.13         0.00          2.64206
            Ni 126 -- Ni 127                -0.00         0.00          2.64224
            Ni 31  -- Ni 57                  0.07         0.00          2.64336
             Al 44 -- Ni 150                 0.14        -0.00          2.64360
            Ni 114 -- Ni 133                -0.03         0.00          2.64488
             Al 48 -- Al 50                  0.25         0.00          2.64493
             Al 3  -- Ni 7                   0.18        -0.00          2.64520
             Al 59 -- Ni 7                   0.15         0.00          2.64533
             Al 46 -- Ni 147                 0.13         0.00          2.64676
            Ni 106 -- Ni 135                 0.03         0.00          2.64799
             Al 13 -- Ni 139                 0.16         0.00          2.64841
             Al 50 -- Al 58                  0.24         0.00          2.65106
             Al 48 -- Al 49                  0.26         0.00          2.65110
             Al 37 -- Ni 122                 0.16         0.00          2.65218
             Al 35 -- Ni 189                 0.15        -0.00          2.65330
             Al 33 -- Ni 122                 0.15         0.00          2.65583
             Al 50 -- Ni 119                 0.13         0.00          2.65847
            Ni 7   -- Ni 8                   0.05         0.00          2.65965
             Al 35 -- Ni 190                 0.13         0.00          2.66058
            Ni 7   -- Ni 9                   0.06         0.00          2.66342
             Al 43 -- Ni 160                 0.15        -0.00          2.66632
             Al 42 -- Al 43                  0.25         0.00          2.66856
             Al 42 -- Ni 153                 0.16        -0.00          2.67125
             Al 23 -- Al 49                  0.24         0.00          2.67185
             Al 38 -- Al 45                  0.23         0.00          2.68070
            Ni 168 -- Ni 169                 0.02        -0.00          2.68989
            Ni 148 -- Ni 150                 0.07         0.00          2.69061
             Al 45 -- Al 62                  0.21         0.00          2.69546
             Al 46 -- Al 56                  0.26         0.00          2.69601
            Ni 161 -- Ni 170                 0.02         0.00          2.70740
             Al 5  -- Al 59                  0.20         0.00          2.71318
             Al 56 -- Ni 130                 0.10         0.00          2.71536
             Al 19 -- Ni 31                  0.13        -0.00          2.71611
             Al 42 -- Al 45                  0.21         0.00          2.72026
             Al 11 -- Al 55                  0.20         0.00          2.72224
            Ni 164 -- Ni 170                 0.04         0.00          2.72305
             Al 36 -- Al 37                  0.22         0.00          2.72379
            Ni 149 -- Ni 150                 0.00         0.00          2.72535
             Al 56 -- Ni 124                 0.10         0.00          2.73304
             Al 46 -- Al 47                  0.21         0.00          2.73508
             Al 55 -- Al 59                  0.20         0.00          2.73511
             Al 34 -- Al 35                  0.19         0.00          2.73735
             Al 33 -- Al 35                  0.21         0.00          2.73825
             Al 33 -- Al 58                  0.20         0.00          2.74098
             Al 21 -- Al 52                  0.20         0.00          2.74451
             Al 34 -- Al 37                  0.19         0.00          2.74497
             Al 57 -- Al 63                  0.19        -0.00          2.74967
             Al 61 -- Al 63                  0.20        -0.00          2.75007
             Al 52 -- Al 55                  0.20         0.00          2.76069
             Al 47 -- Al 62                  0.18         0.00          2.76645
             Al 15 -- Al 49                  0.19         0.00          2.77153
             Al 44 -- Al 46                  0.20         0.00          2.77405
             Al 40 -- Al 51                  0.20         0.00          2.77845
             Al 53 -- Al 54                  0.18         0.00          2.78018
             Al 42 -- Ni 150                 0.11         0.00          2.78302
             Al 44 -- Al 45                  0.15         0.00          2.78524
             Al 41 -- Al 43                  0.16         0.00          2.78644
             Al 41 -- Al 53                  0.17         0.00          2.80220
             Al 43 -- Al 54                  0.16         0.00          2.80647
             Al 13 -- Al 59                  0.17        -0.00          2.82985
             Al 13 -- Al 52                  0.17         0.00          2.83106
             Al 56 -- Al 57                  0.15        -0.00          2.84013
             Al 41 -- Al 54                  0.12        -0.00          2.86789
             Al 13 -- Al 55                  0.08         0.00          2.95512
================================================================================
 

Writing analysis data to castep.castep_bin

Writing model to castep.check
 
 A BibTeX formatted list of references used in this run has been written to 
 castep.bib
 
Initialisation time =     25.24 s
Calculation time    =  15735.10 s
Finalisation time   =     15.97 s
Total time          =  15776.31 s
Peak Memory Use     = 3973788 kB
 
Overall parallel efficiency rating: Satisfactory (66%)
 
Data was distributed by:-
G-vector (128-way); efficiency rating: Satisfactory (68%)
