 +-------------------------------------------------+
 |                                                 |
 |      CCC   AA    SSS  TTTTT  EEEEE  PPPP        |
 |     C     A  A  S       T    E      P   P       |
 |     C     AAAA   SS     T    EEE    PPPP        |
 |     C     A  A     S    T    E      P           |
 |      CCC  A  A  SSS     T    EEEEE  P           |
 |                                                 |
 +-------------------------------------------------+
 |                                                 |
 | Welcome to Academic Release CASTEP version 20.11|          
 | Ab Initio Total Energy Program                  |
 |                                                 |
 | Authors:                                        |
 | M. Segall, M. Probert, C. Pickard, P. Hasnip,   |
 | S. Clark, K. Refson, J. R. Yates, M. Payne      |
 |                                                 |
 | Contributors:                                   |
 | P. Lindan, P. Haynes, J. White, V. Milman,      |
 | N. Govind, M. Gibson, P. Tulip, V. Cocula,      |
 | B. Montanari, D. Quigley, M. Glover,            |
 | L. Bernasconi, A. Perlov, M. Plummer,           |
 | E. McNellis, J. Meyer, J. Gale, D. Jochym       |
 | J. Aarons, B. Walker, R. Gillen, D. Jones       |
 | T. Green, I. J. Bush, C. J. Armstrong,          |
 | E. J. Higgins, E. L. Brown, M. S. McFly,        |
 | J. Wilkins, B-C. Shih, P. J. P. Byrne,          |
 | R. J. Maurer, J. C. Womack, J. Dziedzic,        |
 | J. R. Kermode, A. Bartok-Partay                 |
 |                                                 |
 | Copyright (c) 2000 - 2020                       |
 |                                                 |
 |     Distributed under license from Cambridge    |
 |     Enterprise for academic use only.           |
 |                                                 |
 | Please cite                                     |
 |                                                 |
 |     "First principles methods using CASTEP"     |
 |                                                 |
 |         Zeitschrift fuer Kristallographie       |
 |           220(5-6) pp. 567-570 (2005)           |
 |                                                 |
 | S. J. Clark, M. D. Segall, C. J. Pickard,       |
 | P. J. Hasnip, M. J. Probert, K. Refson,         |
 | M. C. Payne                                     |
 |                                                 |
 |       in all publications arising from          |
 |              your use of CASTEP                 |
 |                                                 |
 +-------------------------------------------------+
 |                                                 |
 |              http://www.castep.org              |
 |                                                 |
 +-------------------------------------------------+
 
 
 
 Compiled for linux_x86_64_ifort on Wed, 25 Aug 2021 18:50:38 +0100
 from code version e772bf432+  HEAD  Sat Apr 3 17:41:32 2021 +0100
 Compiler: Intel Fortran 19.0.5.281; Optimisation: fast
 MATHLIBS: Intel MKL(2019.0.5) (LAPACK version 3.7.0)
 FFT Lib : mkl
 Fundamental constants values: CODATA 2014
 
 Run started: Wed, 08 Mar 2023 18:20:59 +0000
 
 Atomic calculation performed for Al: 1s2 2s2 2p6 3s2 3p1
 
 Converged in 52 iterations to an ae energy of -6606.982 eV
 
   ============================================================                
   | Pseudopotential Report - Date of generation  8-03-2023   |                
   ------------------------------------------------------------                
   | Element: Al Ionic charge:  3.00 Level of theory: RPBE    |                
   | Atomic Solver: Koelling-Harmon                           |                
   |                                                          |                
   |               Reference Electronic Structure             |                
   |         Orbital         Occupation         Energy        |                
   |            3s              2.000           -0.284        |                
   |            3p              1.000           -0.100        |                
   |                                                          |                
   |                 Pseudopotential Definition               |                
   |        Beta     l      e      Rc     scheme   norm       |                
   |          1      0   -0.284   2.192     qc      0         |                
   |          2      0    0.250   2.192     qc      0         |                
   |          3      1   -0.100   2.192     qc      0         |                
   |          4      1    0.250   2.192     qc      0         |                
   |          5      2    0.000   2.000     qc      0         |                
   |          6      2    0.250   2.000     qc      0         |                
   |         loc     3    0.000   2.192     pn      0         |                
   |                                                          |                
   | Augmentation charge Rinner = 1.398                       |                
   | Partial core correction Rc = 1.398                       |                
   ------------------------------------------------------------                
   | "3|2.2|2.2|1.4|4|5|5|30:31:32U2U2"                       |                
   ------------------------------------------------------------                
   |      Author: Chris J. Pickard, Cambridge University      |                
   ============================================================                
 
 Atomic calculation performed for Ni: 1s2 2s2 2p6 3s2 3p6 3d8 4s2
 
 Converged in 109 iterations to an ae energy of -41381.414 eV
 
   ============================================================                
   | Pseudopotential Report - Date of generation  8-03-2023   |                
   ------------------------------------------------------------                
   | Element: Ni Ionic charge: 10.00 Level of theory: RPBE    |                
   | Atomic Solver: Koelling-Harmon                           |                
   |                                                          |                
   |               Reference Electronic Structure             |                
   |         Orbital         Occupation         Energy        |                
   |            3d              8.000           -0.324        |                
   |            4s              2.000           -0.204        |                
   |                                                          |                
   |                 Pseudopotential Definition               |                
   |        Beta     l      e      Rc     scheme   norm       |                
   |          1      0   -0.204   2.401     qc      0         |                
   |          2      0    0.250   2.401     qc      0         |                
   |          3      1    0.000   2.401     qc      0         |                
   |          4      1    0.250   2.401     qc      0         |                
   |          5      2   -0.324   1.999     qc      0         |                
   |          6      2    0.250   1.999     qc      0         |                
   |         loc     3    0.000   2.401     pn      0         |                
   |                                                          |                
   | Augmentation charge Rinner = 1.001                       |                
   | Partial core correction Rc = 1.001                       |                
   ------------------------------------------------------------                
   | "3|2.4|2.4|1.0|8|9|10|40:41:32U2U2(qc=5.5)"              |                
   ------------------------------------------------------------                
   |      Author: Chris J. Pickard, Cambridge University      |                
   ============================================================                
 
 Pseudo atomic calculation performed for Al 3s2 3p1
 
 Converged in 13 iterations to a total energy of -107.6592 eV
 
 Pseudo atomic calculation performed for Ni 3d8 4s2
 
 Converged in 41 iterations to a total energy of -1369.7891 eV
 Calculation parallelised over 48 processes.
 Data is distributed by G-vector(48-way)

 ************************************ Title ************************************
 

 ***************************** General Parameters ******************************
  
 output verbosity                               : normal  (1)
 write checkpoint data to                       : castep.check
 type of calculation                            : geometry optimization
 stress calculation                             : off
 density difference calculation                 : off
 electron localisation func (ELF) calculation   : off
 Hirshfeld analysis                             : off
 molecular orbital projected DOS                : off
 deltaSCF calculation                           : off
 unlimited duration calculation
 timing information                             : on
 memory usage estimate                          : on
 write extra output files                       : on
 write final potential to formatted file        : off
 write final density to formatted file          : off
 write BibTeX reference list                    : on
 write OTFG pseudopotential files               : on
 write electrostatic potential file             : on
 write bands file                               : on
 checkpoint writing                             : both castep_bin and check files
  
 output         length unit                     : A
 output           mass unit                     : amu
 output           time unit                     : ps
 output         charge unit                     : e
 output           spin unit                     : hbar/2
 output         energy unit                     : eV
 output          force unit                     : eV/A
 output       velocity unit                     : A/ps
 output       pressure unit                     : GPa
 output     inv_length unit                     : 1/A
 output      frequency unit                     : cm-1
 output force constant unit                     : eV/A**2
 output         volume unit                     : A**3
 output   IR intensity unit                     : (D/A)**2/amu
 output         dipole unit                     : D
 output         efield unit                     : eV/A/e
 output        entropy unit                     : J/mol/K
 output    efield chi2 unit                     : pm/V
  
 wavefunctions paging                           : none
 random number generator seed                   : randomised (182059766)
 data distribution                              : optimal for this architecture
 optimization strategy                          : maximize speed(+++)

 *********************** Exchange-Correlation Parameters ***********************
  
 using functional                               : revised Perdew Burke Ernzerhof
 relativistic treatment                         : Koelling-Harmon
 DFT+D: Semi-empirical dispersion correction    : off

 ************************* Pseudopotential Parameters **************************
  
 pseudopotential representation                 : reciprocal space
 <beta|phi> representation                      : reciprocal space
 spin-orbit coupling                            : off

 **************************** Basis Set Parameters *****************************
  
 plane wave basis set cut-off                   :   900.0000   eV
 size of standard grid                          :     1.7500
 size of   fine   gmax                          :    26.8966   1/A
 finite basis set correction                    : none

 **************************** Electronic Parameters ****************************
  
 number of  electrons                           :  2109.    
 net charge of system                           :  0.000    
 net spin   of system                           :  1.000    
 number of  up  spins                           :  1055.    
 number of down spins                           :  1054.    
 treating system as spin-polarized
 number of bands                                :       1167

 ********************* Electronic Minimization Parameters **********************
  
 Method: Treating system as metallic with density mixing treatment of electrons,
         and number of  SD  steps               :          1
         and number of  CG  steps               :          4
  
 total energy / atom convergence tol.           : 0.1000E-05   eV
 eigen-energy convergence tolerance             : 0.2185E-06   eV
 max force / atom convergence tol.              : ignored
 convergence tolerance window                   :          3   cycles
 max. number of SCF cycles                      :        200
 number of fixed-spin iterations                :         10
 smearing scheme                                : Gaussian
 smearing width                                 : 0.2000       eV
 Fermi energy convergence tolerance             : 0.2721E-13   eV
 periodic dipole correction                     : NONE
 periodically dump wavefunctions to             : castep.wvfn
 dump wavefunctions every                       :          1   SCF cycles

 ************************** Density Mixing Parameters **************************
  
 density-mixing scheme                          : Pulay
 max. length of mixing history                  :         20
 charge density mixing amplitude                : 0.8000    
   spin density mixing amplitude                :  2.000    
 cut-off energy for mixing                      :  900.0       eV

 *********************** Population Analysis Parameters ************************
  
 Population analysis with cutoff                :  3.000       A
 Population analysis output                     : summary and pdos components

 ********************** Geometry Optimization Parameters ***********************
  
 optimization method                            : LBFGS
 max. no. of LBFGS updates                      : unbounded
 variable cell method                           : fixed basis quality
 max. number of steps                           :         30
 estimated bulk modulus                         :  500.0       GPa
 estimated <frequency>                          :  1668.       cm-1
 geom line minimiser                            : on
 with line minimiser tolerance                  :     0.4000
  with spin fully able to relax for all steps
 total energy convergence tolerance             : 0.2000E-04   eV/atom
        max ionic |force| tolerance             : 0.5000E-01   eV/A
 max ionic |displacement| tolerance             : 0.1000E-02   A
   max |stress component| tolerance             : 0.1000       GPa
 convergence tolerance window                   :          2   steps
 backup results every                           :          5   steps
 write geom trajectory file                     : on

 *******************************************************************************
  
 
                           -------------------------------
                                      Unit Cell
                           -------------------------------
        Real Lattice(A)                      Reciprocal Lattice(1/A)
    14.4648280     0.0000000     0.0000000        0.434376773   0.000000000   0.000000000
     0.0000000    14.4648280     0.0000000        0.000000000   0.434376773   0.000000000
     0.0000000     0.0000000    14.4648280        0.000000000   0.000000000   0.434376773
 
                       Lattice parameters(A)       Cell Angles
                    a =     14.464828          alpha =   90.000000
                    b =     14.464828          beta  =   90.000000
                    c =     14.464828          gamma =   90.000000
 
                       Current cell volume =          3026.494030       A**3
                                   density =             4.285146   AMU/A**3
                                           =             7.115653     g/cm^3
 
                           -------------------------------
                                     Cell Contents
                           -------------------------------
                         Total number of ions in cell =  255
                      Total number of species in cell =    2
                        Max number of any one species =  192
 
            xxxxxxxxxxxxxxxxxxxxxxxxxxxxxxxxxxxxxxxxxxxxxxxxxxxxxxxxxxxx
            x  Element    Atom        Fractional coordinates of atoms  x
            x            Number           u          v          w      x
            x----------------------------------------------------------x
            x  Al           1         0.570155   0.307954   0.813421   x 
            x  Al           2         0.818143   0.308859   0.812792   x 
            x  Al           3         0.568957   0.558663   0.814334   x 
            x  Al           4         0.817600   0.558335   0.813249   x 
            x  Al           5         0.573908   0.808662   0.809681   x 
            x  Al           6         0.818451   0.807822   0.812449   x 
            x  Al           7         0.571101   0.058593   0.813107   x 
            x  Al           8         0.819190   0.058779   0.812127   x 
            x  Al           9         0.569432   0.306730   0.063299   x 
            x  Al          10         0.818578   0.308126   0.062639   x 
            x  Al          11         0.573567   0.554001   0.062762   x 
            x  Al          12         0.817549   0.558324   0.062584   x 
            x  Al          13         0.576380   0.813454   0.063076   x 
            x  Al          14         0.818942   0.808616   0.062406   x 
            x  Al          15         0.573193   0.057770   0.059281   x 
            x  Al          16         0.819589   0.058534   0.062283   x 
            x  Al          17         0.576467   0.302547   0.312564   x 
            x  Al          18         0.818852   0.308569   0.312847   x 
            x  Al          19         0.574796   0.563939   0.311363   x 
            x  Al          20         0.817872   0.558896   0.312623   x 
            x  Al          21         0.574763   0.808794   0.315618   x 
            x  Al          22         0.819369   0.808400   0.313315   x 
            x  Al          23         0.576839   0.058143   0.318815   x 
            x  Al          24         0.820237   0.057874   0.313519   x 
            x  Al          25         0.572371   0.308731   0.562876   x 
            x  Al          26         0.818517   0.309369   0.563702   x 
            x  Al          27         0.569742   0.558420   0.563507   x 
            x  Al          28         0.817994   0.558380   0.563431   x 
            x  Al          29         0.570144   0.808015   0.563633   x 
            x  Al          30         0.819399   0.807661   0.563727   x 
            x  Al          31         0.571921   0.058087   0.562373   x 
            x  Al          32         0.820058   0.058463   0.564129   x 
            x  Al          33         0.328740   0.182882   0.683418   x 
            x  Al          34         0.056064   0.057367   0.557768   x 
            x  Al          35         0.192439   0.189892   0.555186   x 
            x  Al          36         0.321878   0.935120   0.688816   x 
            x  Al          37         0.192806   0.929527   0.554380   x 
            x  Al          38         0.318468   0.687198   0.690532   x 
            x  Al          39         0.074804   0.687519   0.678591   x 
            x  Al          40         0.197886   0.188988   0.322426   x 
            x  Al          41         0.066648   0.805915   0.315287   x 
            x  Al          42         0.325139   0.685499   0.438008   x 
            x  Al          43         0.192521   0.667407   0.313585   x 
            x  Al          44         0.440279   0.432750   0.320357   x 
            x  Al          45         0.328024   0.549009   0.561096   x 
            x  Al          46         0.193063   0.432822   0.311315   x 
            x  Al          47         0.061308   0.434693   0.438645   x 
            x  Al          48         0.317606   0.061466   0.062251   x 
            x  Al          49         0.439711   0.058136   0.195432   x 
            x  Al          50         0.186454   0.054654   0.934817   x 
            x  Al          51         0.067857   0.184826   0.191219   x 
            x  Al          52         0.433102   0.813784   0.189959   x 
            x  Al          53         0.071068   0.945346   0.191592   x 
            x  Al          54         0.201154   0.808197   0.181950   x 
            x  Al          55         0.431780   0.675096   0.062454   x 
            x  Al          56         0.322448   0.430424   0.180484   x 
            x  Al          57         0.183709   0.424919   0.060292   x 
            x  Al          58         0.187160   0.186047   0.806497   x 
            x  Al          59         0.433680   0.814950   0.935680   x 
            x  Al          60         0.192300   0.810956   0.937189   x 
            x  Al          61         0.191365   0.426221   0.804358   x 
            x  Al          62         0.192601   0.426369   0.568976   x 
            x  Al          63         0.187742   0.565404   0.933169   x 
            x  Ni           1         0.567727   0.431637   0.937545   x 
            x  Ni           2         0.693822   0.307868   0.938013   x 
            x  Ni           3         0.693251   0.433463   0.813372   x 
            x  Ni           4         0.817656   0.433513   0.938007   x 
            x  Ni           5         0.942559   0.308940   0.937597   x 
            x  Ni           6         0.942460   0.433916   0.812898   x 
            x  Ni           7         0.563485   0.686728   0.941345   x 
            x  Ni           8         0.692548   0.558756   0.937941   x 
            x  Ni           9         0.692624   0.682722   0.813821   x 
            x  Ni          10         0.818296   0.683174   0.937721   x 
            x  Ni          11         0.942301   0.558447   0.937797   x 
            x  Ni          12         0.942744   0.682997   0.812800   x 
            x  Ni          13         0.567970   0.932198   0.935894   x 
            x  Ni          14         0.694644   0.808563   0.936881   x 
            x  Ni          15         0.695045   0.933900   0.811858   x 
            x  Ni          16         0.819412   0.933433   0.936863   x 
            x  Ni          17         0.942805   0.808021   0.937334   x 
            x  Ni          18         0.943267   0.933020   0.812382   x 
            x  Ni          19         0.568232   0.183328   0.937563   x 
            x  Ni          20         0.695029   0.058272   0.936467   x 
            x  Ni          21         0.693944   0.183610   0.812459   x 
            x  Ni          22         0.818832   0.183564   0.937278   x 
            x  Ni          23         0.943192   0.058492   0.937174   x 
            x  Ni          24         0.943142   0.184023   0.812597   x 
            x  Ni          25         0.566514   0.431957   0.191464   x 
            x  Ni          26         0.694304   0.306818   0.187184   x 
            x  Ni          27         0.693313   0.431684   0.063615   x 
            x  Ni          28         0.818216   0.433409   0.187620   x 
            x  Ni          29         0.942599   0.308780   0.187881   x 
            x  Ni          30         0.942202   0.433793   0.062744   x 
            x  Ni          31         0.563884   0.687262   0.183541   x 
            x  Ni          32         0.693714   0.559250   0.187160   x 
            x  Ni          33         0.693580   0.683787   0.062536   x 
            x  Ni          34         0.818704   0.683870   0.187298   x 
            x  Ni          35         0.942127   0.558677   0.187770   x 
            x  Ni          36         0.942644   0.683322   0.062581   x 
            x  Ni          37         0.567500   0.935044   0.190061   x 
            x  Ni          38         0.694730   0.809614   0.188157   x 
            x  Ni          39         0.696285   0.934785   0.062417   x 
            x  Ni          40         0.819949   0.933516   0.187969   x 
            x  Ni          41         0.943107   0.808229   0.187803   x 
            x  Ni          42         0.943155   0.933199   0.062399   x 
            x  Ni          43         0.568393   0.179084   0.188246   x 
            x  Ni          44         0.694957   0.057573   0.188066   x 
            x  Ni          45         0.694613   0.182767   0.062530   x 
            x  Ni          46         0.819561   0.182842   0.187432   x 
            x  Ni          47         0.943700   0.058274   0.187873   x 
            x  Ni          48         0.943099   0.183590   0.062453   x 
            x  Ni          49         0.570468   0.433607   0.434665   x 
            x  Ni          50         0.695958   0.308375   0.438641   x 
            x  Ni          51         0.694501   0.433446   0.312200   x 
            x  Ni          52         0.818281   0.434128   0.438131   x 
            x  Ni          53         0.942829   0.309287   0.438198   x 
            x  Ni          54         0.942346   0.434054   0.312964   x 
            x  Ni          55         0.568277   0.684376   0.439192   x 
            x  Ni          56         0.694067   0.559257   0.438228   x 
            x  Ni          57         0.694834   0.684814   0.312088   x 
            x  Ni          58         0.818757   0.683251   0.438383   x 
            x  Ni          59         0.942525   0.558669   0.438000   x 
            x  Ni          60         0.942547   0.683327   0.313006   x 
            x  Ni          61         0.570276   0.932634   0.439859   x 
            x  Ni          62         0.695593   0.808085   0.439752   x 
            x  Ni          63         0.696678   0.933233   0.314147   x 
            x  Ni          64         0.820232   0.932814   0.439186   x 
            x  Ni          65         0.943435   0.807834   0.438409   x 
            x  Ni          66         0.943687   0.933014   0.313373   x 
            x  Ni          67         0.571293   0.182829   0.439439   x 
            x  Ni          68         0.697493   0.057919   0.440353   x 
            x  Ni          69         0.697749   0.182018   0.313434   x 
            x  Ni          70         0.820122   0.183643   0.439155   x 
            x  Ni          71         0.943807   0.058301   0.438592   x 
            x  Ni          72         0.942889   0.183644   0.313179   x 
            x  Ni          73         0.567650   0.433845   0.689270   x 
            x  Ni          74         0.693378   0.308807   0.688367   x 
            x  Ni          75         0.692899   0.434200   0.563002   x 
            x  Ni          76         0.817839   0.433904   0.688185   x 
            x  Ni          77         0.943047   0.309308   0.687974   x 
            x  Ni          78         0.942781   0.434102   0.563082   x 
            x  Ni          79         0.567343   0.683270   0.687842   x 
            x  Ni          80         0.692800   0.558381   0.688681   x 
            x  Ni          81         0.693858   0.682897   0.563615   x 
            x  Ni          82         0.818181   0.682647   0.688468   x 
            x  Ni          83         0.942716   0.558436   0.688132   x 
            x  Ni          84         0.943005   0.682901   0.563290   x 
            x  Ni          85         0.568557   0.933869   0.686980   x 
            x  Ni          86         0.694789   0.807919   0.687321   x 
            x  Ni          87         0.695375   0.932937   0.563925   x 
            x  Ni          88         0.819453   0.933270   0.687946   x 
            x  Ni          89         0.943136   0.807731   0.688087   x 
            x  Ni          90         0.943936   0.932934   0.563441   x 
            x  Ni          91         0.568151   0.182803   0.687498   x 
            x  Ni          92         0.694354   0.058636   0.687757   x 
            x  Ni          93         0.695225   0.183657   0.564035   x 
            x  Ni          94         0.819078   0.184035   0.688175   x 
            x  Ni          95         0.943824   0.058551   0.687950   x 
            x  Ni          96         0.943665   0.184143   0.563384   x 
            x  Ni          97         0.069894   0.430619   0.932047   x 
            x  Ni          98         0.190663   0.305570   0.933372   x 
            x  Ni          99         0.064026   0.305214   0.807699   x 
            x  Ni         100         0.311477   0.432005   0.935412   x 
            x  Ni         101         0.442536   0.306603   0.937932   x 
            x  Ni         102         0.316704   0.557161   0.811458   x 
            x  Ni         103         0.319842   0.304896   0.810850   x 
            x  Ni         104         0.065397   0.560780   0.805166   x 
            x  Ni         105         0.065284   0.687577   0.935898   x 
            x  Ni         106         0.314851   0.683891   0.934014   x 
            x  Ni         107         0.441911   0.557588   0.937105   x 
            x  Ni         108         0.443727   0.685105   0.814563   x 
            x  Ni         109         0.190647   0.685894   0.809600   x 
            x  Ni         110         0.066535   0.934089   0.935437   x 
            x  Ni         111         0.316853   0.811463   0.811438   x 
            x  Ni         112         0.190688   0.935968   0.807503   x 
            x  Ni         113         0.314074   0.938291   0.935214   x 
            x  Ni         114         0.318274   0.810058   0.060522   x 
            x  Ni         115         0.444335   0.935232   0.812126   x 
            x  Ni         116         0.065298   0.180476   0.933381   x 
            x  Ni         117         0.316000   0.061786   0.809402   x 
            x  Ni         118         0.066948   0.057850   0.805653   x 
            x  Ni         119         0.314482   0.180338   0.935297   x 
            x  Ni         120         0.442812   0.057705   0.937855   x 
            x  Ni         121         0.444784   0.182658   0.813075   x 
            x  Ni         122         0.193286   0.060760   0.678119   x 
            x  Ni         123         0.064960   0.430346   0.188639   x 
            x  Ni         124         0.192259   0.307288   0.188932   x 
            x  Ni         125         0.062561   0.303418   0.061244   x 
            x  Ni         126         0.445872   0.307169   0.189084   x 
            x  Ni         127         0.443626   0.432717   0.060647   x 
            x  Ni         128         0.318571   0.306141   0.060614   x 
            x  Ni         129         0.070884   0.683767   0.190059   x 
            x  Ni         130         0.191120   0.552044   0.184167   x 
            x  Ni         131         0.191397   0.682889   0.061240   x 
            x  Ni         132         0.065611   0.558090   0.060715   x 
            x  Ni         133         0.315311   0.678411   0.189085   x 
            x  Ni         134         0.444130   0.556176   0.187438   x 
            x  Ni         135         0.312498   0.552996   0.058655   x 
            x  Ni         136         0.067108   0.060467   0.063015   x 
            x  Ni         137         0.070327   0.813869   0.066209   x 
            x  Ni         138         0.314930   0.937837   0.189912   x 
            x  Ni         139         0.443429   0.936195   0.064202   x 
            x  Ni         140         0.191738   0.937518   0.063106   x 
            x  Ni         141         0.194927   0.064519   0.190974   x 
            x  Ni         142         0.190466   0.184166   0.060751   x 
            x  Ni         143         0.317408   0.185274   0.190290   x 
            x  Ni         144         0.443253   0.180674   0.064004   x 
            x  Ni         145         0.064083   0.309106   0.314773   x 
            x  Ni         146         0.448278   0.308085   0.436676   x 
            x  Ni         147         0.320649   0.313410   0.315204   x 
            x  Ni         148         0.065656   0.679013   0.438589   x 
            x  Ni         149         0.062918   0.555664   0.314360   x 
            x  Ni         150         0.196256   0.548381   0.442240   x 
            x  Ni         151         0.447046   0.558656   0.436543   x 
            x  Ni         152         0.444483   0.683807   0.310283   x 
            x  Ni         153         0.320208   0.552011   0.315676   x 
            x  Ni         154         0.064884   0.931845   0.436071   x 
            x  Ni         155         0.192791   0.802575   0.433900   x 
            x  Ni         156         0.191459   0.933210   0.314836   x 
            x  Ni         157         0.318175   0.931732   0.437796   x 
            x  Ni         158         0.445806   0.809006   0.435835   x 
            x  Ni         159         0.444130   0.933459   0.314733   x 
            x  Ni         160         0.315640   0.805693   0.313225   x 
            x  Ni         161         0.064711   0.185685   0.436788   x 
            x  Ni         162         0.191122   0.059398   0.440862   x 
            x  Ni         163         0.068302   0.062327   0.315729   x 
            x  Ni         164         0.320188   0.185915   0.440183   x 
            x  Ni         165         0.446145   0.057865   0.436645   x 
            x  Ni         166         0.444555   0.183708   0.314801   x 
            x  Ni         167         0.317782   0.060061   0.317542   x 
            x  Ni         168         0.065990   0.431237   0.684018   x 
            x  Ni         169         0.194500   0.302885   0.684329   x 
            x  Ni         170         0.193380   0.317134   0.438192   x 
            x  Ni         171         0.062364   0.308175   0.558821   x 
            x  Ni         172         0.320354   0.431527   0.687199   x 
            x  Ni         173         0.447409   0.308425   0.687762   x 
            x  Ni         174         0.447522   0.431680   0.559947   x 
            x  Ni         175         0.323235   0.311770   0.560109   x 
            x  Ni         176         0.067707   0.810685   0.807718   x 
            x  Ni         177         0.194764   0.557659   0.685349   x 
            x  Ni         178         0.199522   0.679776   0.559370   x 
            x  Ni         179         0.064717   0.557416   0.562303   x 
            x  Ni         180         0.442091   0.432062   0.814705   x 
            x  Ni         181         0.442882   0.682965   0.564137   x 
            x  Ni         182         0.443811   0.558715   0.690338   x 
            x  Ni         183         0.068439   0.932130   0.680021   x 
            x  Ni         184         0.195402   0.810938   0.683657   x 
            x  Ni         185         0.066534   0.807244   0.557550   x 
            x  Ni         186         0.444381   0.809369   0.689272   x 
            x  Ni         187         0.444638   0.933694   0.561982   x 
            x  Ni         188         0.321225   0.809223   0.562063   x 
            x  Ni         189         0.066105   0.182407   0.680207   x 
            x  Ni         190         0.320451   0.057896   0.560651   x 
            x  Ni         191         0.446126   0.057796   0.687100   x 
            x  Ni         192         0.446524   0.183635   0.560596   x 
            xxxxxxxxxxxxxxxxxxxxxxxxxxxxxxxxxxxxxxxxxxxxxxxxxxxxxxxxxxxx
 
 
                         No user defined ionic velocities
 
                           -------------------------------
                                   Details of Species
                           -------------------------------
 
                               Mass of species in AMU
                                    Al   26.9815400
                                    Ni   58.6934000
 
                          Electric Quadrupole Moment (Barn)
                                    Al    0.1466000 Isotope 27
                                    Ni    0.1620000 Isotope 61
 
                          Files used for pseudopotentials:
                                    Al 3|2.2|2.2|1.4|4|5|5|30:31:32U2U2
                                    Ni 3|2.4|2.4|1.0|8|9|10|40:41:32U2U2(qc=5.5)
 
                           -------------------------------
                              k-Points For BZ Sampling
                           -------------------------------
                       MP grid size for SCF calculation is  1  1  1
                            with an offset of   0.000  0.000  0.000
                       Number of kpoints used =             1
 
                           -------------------------------
                               Symmetry and Constraints
                           -------------------------------
 
                      Maximum deviation from symmetry =  0.00000         ANG
 
                      Number of symmetry operations   =           1
                      Number of ionic constraints     =           3
                      Point group of crystal =     1: C1, 1, 1
                      Space group of crystal =     1: P1, P 1
 
             Set iprint > 1 for details on symmetry rotations/translations
 
                         Centre of mass is constrained
             Set iprint > 1 for details of linear ionic constraints
 
                         Number of cell constraints= 6
                         Cell constraints are:  0 0 0 0 0 0
 
                         External pressure/stress (GPa)
                          0.00000   0.00000   0.00000
                                    0.00000   0.00000
                                              0.00000
  
+---------------- MEMORY AND SCRATCH DISK ESTIMATES PER PROCESS --------------+
|                                                     Memory          Disk    |
| Baseline code, static data and system overhead      622.0 MB         0.0 MB |
| BLAS internal memory storage                          0.0 MB         0.0 MB |
| Model and support data                              741.5 MB         0.0 MB |
| Electronic energy minimisation requirements         236.0 MB         0.0 MB |
| Force calculation requirements                        7.9 MB         0.0 MB |
|                                               ----------------------------- |
| Approx. total storage required per process         1599.5 MB         0.0 MB |
|                                                                             |
| Requirements will fluctuate during execution and may exceed these estimates |
+-----------------------------------------------------------------------------+
Calculating total energy with cut-off of  900.000 eV.
------------------------------------------------------------------------ <-- SCF
SCF loop      Energy           Fermi           Energy gain       Timer   <-- SCF
                               energy          per atom          (sec)   <-- SCF
------------------------------------------------------------------------ <-- SCF
Initial  -2.19142535E+005  0.00000000E+000                        20.30  <-- SCF
      1  -2.63683115E+005  7.13717656E+000   1.74668943E+002     107.30  <-- SCF
      2  -2.70651751E+005  3.65929793E+000   2.73279835E+001     189.11  <-- SCF
      3  -2.71369519E+005  3.53613481E+000   2.81477557E+000     272.12  <-- SCF
      4  -2.71425993E+005  3.65403857E+000   2.21468303E-001     349.74  <-- SCF
      5  -2.71708085E+005  6.61533932E+000   1.10624322E+000     443.96  <-- SCF
      6  -2.71510269E+005  5.54491014E+000  -7.75749133E-001     556.69  <-- SCF
      7  -2.71401342E+005  4.52923459E+000  -4.27166460E-001     657.20  <-- SCF
      8  -2.71386091E+005  4.41203290E+000  -5.98082474E-002     757.56  <-- SCF
      9  -2.71398741E+005  4.49285448E+000   4.96090506E-002     852.98  <-- SCF
     10  -2.71394489E+005  4.43407314E+000  -1.66740580E-002     950.30  <-- SCF
     11  -2.72242746E+005  6.19115424E+000   3.32649749E+000    1053.54  <-- SCF
     12  -2.72255377E+005  6.14173271E+000   4.95322496E-002    1138.97  <-- SCF
     13  -2.71480829E+005  4.78054808E+000  -3.03744310E+000    1266.59  <-- SCF
     14  -2.71550454E+005  4.80185407E+000   2.73040164E-001    1349.70  <-- SCF
     15  -2.71418572E+005  4.28319640E+000  -5.17184104E-001    1454.52  <-- SCF
     16  -2.71394225E+005  4.23009050E+000  -9.54807443E-002    1547.81  <-- SCF
     17  -2.71390075E+005  4.29384879E+000  -1.62735498E-002    1640.96  <-- SCF
     18  -2.71387997E+005  4.34363244E+000  -8.14911519E-003    1733.80  <-- SCF
     19  -2.71386354E+005  4.36749521E+000  -6.44291886E-003    1827.52  <-- SCF
     20  -2.71385511E+005  4.36335205E+000  -3.30366834E-003    1925.47  <-- SCF
     21  -2.71385286E+005  4.35457633E+000  -8.84946865E-004    2019.45  <-- SCF
     22  -2.71385180E+005  4.35004047E+000  -4.14240741E-004    2115.38  <-- SCF
     23  -2.71385084E+005  4.35531157E+000  -3.77101406E-004    2209.78  <-- SCF
     24  -2.71385019E+005  4.36192768E+000  -2.54275094E-004    2302.95  <-- SCF
     25  -2.71384969E+005  4.36649048E+000  -1.95723631E-004    2396.53  <-- SCF
     26  -2.71384850E+005  4.37202829E+000  -4.66625708E-004    2490.90  <-- SCF
     27  -2.71384806E+005  4.37422181E+000  -1.73302261E-004    2587.65  <-- SCF
     28  -2.71384800E+005  4.37539014E+000  -2.52923691E-005    2684.46  <-- SCF
     29  -2.71384791E+005  4.37692120E+000  -3.46536868E-005    2778.19  <-- SCF
     30  -2.71384789E+005  4.37749186E+000  -5.57926096E-006    2864.30  <-- SCF
     31  -2.71384789E+005  4.37828592E+000  -1.30725329E-006    2950.52  <-- SCF
     32  -2.71384787E+005  4.37886862E+000  -5.86224124E-006    3025.37  <-- SCF
     33  -2.71384787E+005  4.37893132E+000  -6.43873462E-008    3087.94  <-- SCF
     34  -2.71384788E+005  4.37896905E+000   2.07824863E-007    3149.05  <-- SCF
------------------------------------------------------------------------ <-- SCF
 
Integrated Spin Density     =    0.133122     hbar/2                        
Integrated |Spin Density|   =    0.214953     hbar/2                        
 
Final energy, E             =  -271380.2680260     eV
Final free energy (E-TS)    =  -271384.7875319     eV
(energies not corrected for finite basis set)
 
NB est. 0K energy (E-0.5TS)      =  -271382.5277790     eV
 

Writing analysis data to castep.castep_bin

Writing model to castep.check
 
+---------------- MEMORY AND SCRATCH DISK ESTIMATES PER PROCESS --------------+
|                                                     Memory          Disk    |
| Model and support data                              750.6 MB         0.0 MB |
| Electronic energy minimisation requirements         236.0 MB         0.0 MB |
| Geometry minimisation requirements                  309.4 MB         0.0 MB |
|                                               ----------------------------- |
| Approx. total storage required per process         1296.0 MB         0.0 MB |
|                                                                             |
| Requirements will fluctuate during execution and may exceed these estimates |
+-----------------------------------------------------------------------------+
 
 
 ************************************** Forces **************************************
 *                                                                                  *
 *                           Cartesian components (eV/A)                            *
 * -------------------------------------------------------------------------------- *
 *                         x                    y                    z              *
 *                                                                                  *
 * Al              1     -0.11408             -0.00782             -0.02781         *
 * Al              2      0.03656             -0.02708             -0.00352         *
 * Al              3     -0.11370             -0.02252              0.01365         *
 * Al              4      0.07279             -0.01082              0.00737         *
 * Al              5     -0.06795              0.00871             -0.13612         *
 * Al              6      0.11499              0.02522              0.00527         *
 * Al              7     -0.15750              0.03540             -0.03406         *
 * Al              8      0.06692              0.01582             -0.02388         *
 * Al              9     -0.09559              0.04141             -0.01078         *
 * Al             10      0.05734              0.01326             -0.03091         *
 * Al             11     -0.05317             -0.13084             -0.00924         *
 * Al             12      0.10502             -0.00348             -0.01953         *
 * Al             13      0.37077              0.10000             -0.02757         *
 * Al             14      0.04622             -0.03906             -0.03670         *
 * Al             15     -0.01104             -0.00977             -0.13310         *
 * Al             16      0.07544              0.02941             -0.02592         *
 * Al             17     -0.09639             -0.05460              0.04846         *
 * Al             18      0.02059              0.02313             -0.00256         *
 * Al             19     -0.07460              0.03258              0.01414         *
 * Al             20      0.06927             -0.00345             -0.00974         *
 * Al             21     -0.03904              0.01353              0.14249         *
 * Al             22      0.12221              0.00496              0.00688         *
 * Al             23      0.01752              0.01570              0.13471         *
 * Al             24      0.03228             -0.00458             -0.00291         *
 * Al             25     -0.09856             -0.06160             -0.01109         *
 * Al             26     -0.01566             -0.02248              0.00931         *
 * Al             27     -0.11524             -0.01343             -0.00099         *
 * Al             28      0.05864              0.02251              0.00442         *
 * Al             29     -0.15305              0.05649              0.01481         *
 * Al             30      0.04702             -0.00015              0.00874         *
 * Al             31     -0.18561              0.01929              0.02176         *
 * Al             32      0.08340             -0.02051              0.02015         *
 * Al             33      0.14145              0.17843              0.05202         *
 * Al             34      0.38475              0.14715              0.32213         *
 * Al             35     -0.01860              0.00363             -0.11095         *
 * Al             36      0.15649              0.04979              0.22393         *
 * Al             37     -0.05053             -0.29417             -0.04751         *
 * Al             38      0.04632              0.03024              0.19196         *
 * Al             39     -0.52119             -0.27130              0.57032         *
 * Al             40      0.08697             -0.25771             -0.00902         *
 * Al             41     -0.71116             -0.01796              0.60055         *
 * Al             42      0.24097              0.09859             -0.08137         *
 * Al             43     -0.14760             -0.09155             -0.02660         *
 * Al             44      0.08053             -0.07662              0.35718         *
 * Al             45     -0.07077             -0.01881              0.01751         *
 * Al             46     -0.02207              0.06737             -0.01798         *
 * Al             47     -0.38780             -0.07538              0.01520         *
 * Al             48     -0.25452             -0.07347             -0.02711         *
 * Al             49      0.01730              0.17294              0.13121         *
 * Al             50     -0.29712              0.04998             -0.05017         *
 * Al             51     -0.48959             -0.11965             -0.67131         *
 * Al             52     -0.14032              0.07648              0.19796         *
 * Al             53     -0.56125             -0.04236             -0.65800         *
 * Al             54      0.10744             -0.05274             -0.17087         *
 * Al             55     -0.19154             -0.10648             -0.13364         *
 * Al             56      0.23354              0.03755              0.00271         *
 * Al             57     -0.21863             -0.11515             -0.14273         *
 * Al             58     -0.08173              0.02673              0.14491         *
 * Al             59     -0.00786              0.10843             -0.28925         *
 * Al             60     -0.18901             -0.03331             -0.14993         *
 * Al             61      0.01842              0.04477              0.02540         *
 * Al             62     -0.11947             -0.01100              0.18937         *
 * Al             63     -0.02010              0.11332             -0.00573         *
 * Ni              1     -0.00394              0.05225             -0.02657         *
 * Ni              2      0.00479             -0.00026              0.01238         *
 * Ni              3      0.01686              0.01511             -0.01037         *
 * Ni              4      0.10562             -0.01297             -0.02234         *
 * Ni              5      0.12840             -0.05383             -0.09291         *
 * Ni              6      0.10856              0.04971             -0.11595         *
 * Ni              7      0.11862              0.21601              0.29587         *
 * Ni              8      0.02784             -0.01529              0.01586         *
 * Ni              9      0.04062              0.00830             -0.02993         *
 * Ni             10     -0.00338              0.00213              0.02300         *
 * Ni             11      0.32803             -0.04236             -0.11205         *
 * Ni             12      0.19409              0.10214             -0.06134         *
 * Ni             13      0.10677             -0.15403              0.18233         *
 * Ni             14     -0.05051             -0.01687              0.00369         *
 * Ni             15     -0.08112             -0.02232              0.03179         *
 * Ni             16     -0.01559              0.00265             -0.01259         *
 * Ni             17      0.16216              0.12510              0.00623         *
 * Ni             18      0.14680             -0.02230             -0.15266         *
 * Ni             19     -0.00068             -0.01518              0.08489         *
 * Ni             20      0.05973              0.01248              0.00294         *
 * Ni             21     -0.00064             -0.00487             -0.01217         *
 * Ni             22      0.02784              0.00513             -0.02149         *
 * Ni             23      0.19580             -0.02856             -0.04820         *
 * Ni             24      0.02521             -0.14893             -0.16181         *
 * Ni             25      0.18742              0.04957              0.01728         *
 * Ni             26      0.04447              0.07298              0.01028         *
 * Ni             27      0.06725              0.00437             -0.03200         *
 * Ni             28      0.00063              0.02324             -0.06249         *
 * Ni             29      0.06456              0.06769              0.00709         *
 * Ni             30      0.24352             -0.07039             -0.09938         *
 * Ni             31      0.15100              0.22298             -0.30979         *
 * Ni             32     -0.03352             -0.04782              0.01973         *
 * Ni             33     -0.05181              0.03218              0.01164         *
 * Ni             34     -0.05338             -0.07653             -0.02125         *
 * Ni             35      0.20186             -0.02072             -0.01548         *
 * Ni             36      0.27463              0.12490              0.05152         *
 * Ni             37      0.20502             -0.05019             -0.07606         *
 * Ni             38      0.02642             -0.04434              0.00706         *
 * Ni             39     -0.06982              0.00046              0.02407         *
 * Ni             40     -0.00976             -0.04007             -0.02498         *
 * Ni             41      0.37739              0.02827             -0.03461         *
 * Ni             42      0.25124              0.07092             -0.06016         *
 * Ni             43      0.09133             -0.07655              0.02109         *
 * Ni             44      0.09469              0.01157             -0.00425         *
 * Ni             45     -0.02949             -0.01566              0.03514         *
 * Ni             46      0.00896              0.07394             -0.00249         *
 * Ni             47     -0.12192              0.15127              0.09916         *
 * Ni             48     -0.07414             -0.16092             -0.10303         *
 * Ni             49      0.03731             -0.05445             -0.07257         *
 * Ni             50     -0.03587              0.00828             -0.01156         *
 * Ni             51     -0.00416              0.00708             -0.02049         *
 * Ni             52      0.04510             -0.01119              0.00959         *
 * Ni             53     -0.20663             -0.26002             -0.08956         *
 * Ni             54     -0.24091             -0.08009             -0.23291         *
 * Ni             55      0.09642             -0.00988             -0.14865         *
 * Ni             56     -0.02357             -0.00532             -0.03752         *
 * Ni             57     -0.00522              0.01031              0.01584         *
 * Ni             58     -0.02650              0.01773             -0.02946         *
 * Ni             59     -0.17007              0.21638              0.01988         *
 * Ni             60      0.07885             -0.13247             -0.05280         *
 * Ni             61      0.10040              0.04728             -0.15075         *
 * Ni             62     -0.01027             -0.02337             -0.00756         *
 * Ni             63     -0.10574             -0.00128             -0.04618         *
 * Ni             64     -0.03231              0.01443              0.01492         *
 * Ni             65     -0.05292             -0.09078              0.09893         *
 * Ni             66      0.10394              0.04341             -0.04567         *
 * Ni             67      0.07010              0.02445             -0.13713         *
 * Ni             68     -0.01612              0.01202             -0.01521         *
 * Ni             69     -0.04041             -0.02085             -0.01876         *
 * Ni             70     -0.01334             -0.03179             -0.00584         *
 * Ni             71     -0.29985              0.04515             -0.52599         *
 * Ni             72     -0.11834             -0.03804              0.11955         *
 * Ni             73      0.07830             -0.00152              0.00572         *
 * Ni             74      0.03510              0.00376             -0.00159         *
 * Ni             75      0.12563             -0.01232              0.05135         *
 * Ni             76      0.01260             -0.02829              0.05008         *
 * Ni             77     -0.00263             -0.07372             -0.12715         *
 * Ni             78     -0.25780              0.00709              0.22117         *
 * Ni             79      0.12071             -0.03279              0.14107         *
 * Ni             80      0.02587              0.02735              0.00278         *
 * Ni             81     -0.00151              0.01675             -0.01335         *
 * Ni             82      0.00371             -0.01225             -0.00863         *
 * Ni             83      0.00853             -0.04275             -0.12246         *
 * Ni             84     -0.06945             -0.01823             -0.13328         *
 * Ni             85      0.13263             -0.01048              0.04747         *
 * Ni             86      0.00390             -0.00526             -0.01087         *
 * Ni             87     -0.00896             -0.01105             -0.00846         *
 * Ni             88     -0.04840              0.02273              0.02131         *
 * Ni             89      0.11499              0.12095             -0.15687         *
 * Ni             90     -0.28621             -0.36844             -0.13965         *
 * Ni             91      0.13727              0.05542              0.00441         *
 * Ni             92      0.01588             -0.03080              0.01431         *
 * Ni             93     -0.00546              0.00362             -0.03996         *
 * Ni             94      0.01334              0.01582              0.01692         *
 * Ni             95     -0.14599             -0.08944              0.09692         *
 * Ni             96     -0.44454              0.24836             -0.13796         *
 * Ni             97     -0.20404              0.34594              0.10450         *
 * Ni             98      0.02140             -0.17711              0.18034         *
 * Ni             99      0.07965              0.29822              0.19586         *
 * Ni            100      0.23786              0.07072              0.10199         *
 * Ni            101     -0.20810              0.01795             -0.04466         *
 * Ni            102      0.03131             -0.08493              0.16605         *
 * Ni            103      0.08261              0.00769              0.06384         *
 * Ni            104      0.15103             -0.25409              0.49697         *
 * Ni            105     -0.03553             -0.17881              0.04650         *
 * Ni            106      0.32414             -0.06468              0.02665         *
 * Ni            107     -0.19472             -0.14834              0.01147         *
 * Ni            108     -0.06540              0.00390              0.02535         *
 * Ni            109      0.01942              0.00356             -0.02214         *
 * Ni            110     -0.16806             -0.15991              0.14960         *
 * Ni            111     -0.22370             -0.05452             -0.05758         *
 * Ni            112      0.02271             -0.13440             -0.04600         *
 * Ni            113      0.25819              0.12975              0.06808         *
 * Ni            114      0.01044             -0.02900              0.02062         *
 * Ni            115     -0.05416              0.00791              0.13883         *
 * Ni            116      0.13206              0.23525              0.18668         *
 * Ni            117      0.06671              0.01395              0.12411         *
 * Ni            118      0.13670             -0.00001              0.15724         *
 * Ni            119      0.15825              0.08060              0.02552         *
 * Ni            120     -0.02960              0.05859             -0.26245         *
 * Ni            121     -0.11978             -0.08053              0.24655         *
 * Ni            122     -0.16624             -0.04873              0.12915         *
 * Ni            123     -0.06318              0.15062             -0.15869         *
 * Ni            124      0.13283              0.05086             -0.02559         *
 * Ni            125      0.23851              0.31489             -0.09467         *
 * Ni            126     -0.25075             -0.14951              0.13932         *
 * Ni            127     -0.01509             -0.06654             -0.21697         *
 * Ni            128     -0.20540             -0.05872             -0.01522         *
 * Ni            129      0.00522              0.16991             -0.12818         *
 * Ni            130      0.08542             -0.09522              0.01252         *
 * Ni            131      0.03359             -0.00059              0.09039         *
 * Ni            132      0.15762             -0.02735              0.05289         *
 * Ni            133      0.11812             -0.14910             -0.11704         *
 * Ni            134     -0.08472              0.02332              0.30427         *
 * Ni            135     -0.21416              0.04667              0.06515         *
 * Ni            136     -0.16052              0.05031             -0.15485         *
 * Ni            137     -0.32145             -0.39821             -0.03676         *
 * Ni            138      0.12463              0.09586             -0.01859         *
 * Ni            139     -0.13821             -0.03118             -0.08906         *
 * Ni            140      0.12355             -0.02946             -0.00022         *
 * Ni            141     -0.13000              0.07842              0.19755         *
 * Ni            142      0.17668              0.01893             -0.11746         *
 * Ni            143      0.31989              0.19984             -0.20467         *
 * Ni            144     -0.10605             -0.08134              0.01413         *
 * Ni            145      0.25139              0.03354             -0.15031         *
 * Ni            146     -0.31359             -0.11820              0.13343         *
 * Ni            147      0.01189             -0.04121             -0.01408         *
 * Ni            148      0.29113              0.10849             -0.03597         *
 * Ni            149      0.33276             -0.02494             -0.28965         *
 * Ni            150     -0.10009              0.12241              0.23537         *
 * Ni            151     -0.17535              0.06196              0.01211         *
 * Ni            152      0.04366             -0.01824             -0.06654         *
 * Ni            153     -0.08558              0.13230             -0.33989         *
 * Ni            154      0.24832              0.21356              0.03835         *
 * Ni            155     -0.00511             -0.10689              0.07287         *
 * Ni            156     -0.05576             -0.12837             -0.29975         *
 * Ni            157      0.25395              0.05605             -0.25984         *
 * Ni            158     -0.16927              0.10426              0.24746         *
 * Ni            159     -0.15697             -0.03894              0.10311         *
 * Ni            160     -0.25500              0.17451              0.20406         *
 * Ni            161      0.03274              0.06128              0.10420         *
 * Ni            162     -0.00479             -0.15355              0.08052         *
 * Ni            163      0.04324              0.04857              0.24613         *
 * Ni            164      0.33665              0.05270             -0.11909         *
 * Ni            165     -0.32781              0.04853              0.17323         *
 * Ni            166     -0.11926             -0.02560             -0.02614         *
 * Ni            167     -0.06239             -0.16852              0.10098         *
 * Ni            168     -0.17539              0.16139              0.27025         *
 * Ni            169     -0.02947             -0.11345             -0.06255         *
 * Ni            170      0.05021              0.13127             -0.04445         *
 * Ni            171      0.35971              0.12530              0.36232         *
 * Ni            172      0.28711             -0.14988             -0.10471         *
 * Ni            173     -0.26773              0.25791             -0.05604         *
 * Ni            174      0.11491             -0.12000              0.06550         *
 * Ni            175      0.04806             -0.15479             -0.03411         *
 * Ni            176     -0.01284             -0.05394              0.23506         *
 * Ni            177      0.02896             -0.01959             -0.15030         *
 * Ni            178      0.02286              0.08308             -0.23674         *
 * Ni            179      0.39662             -0.06418              0.06991         *
 * Ni            180     -0.08019              0.02083             -0.10568         *
 * Ni            181     -0.03943             -0.00949              0.04845         *
 * Ni            182     -0.15966             -0.16101             -0.08078         *
 * Ni            183      0.06510              0.10218              0.37694         *
 * Ni            184     -0.14354              0.16176              0.00943         *
 * Ni            185      0.16532             -0.04630              0.03244         *
 * Ni            186     -0.00870             -0.09354             -0.12797         *
 * Ni            187     -0.07340             -0.10376             -0.17958         *
 * Ni            188      0.04443              0.17972             -0.05416         *
 * Ni            189     -0.02634              0.09674              0.31529         *
 * Ni            190      0.11806             -0.03138             -0.18342         *
 * Ni            191     -0.05752              0.02769             -0.10297         *
 * Ni            192      0.07343             -0.02053             -0.13997         *
 *                                                                                  *
 ************************************************************************************
 LBFGS: finished iteration     0 with enthalpy= -2.71384788E+005 eV
  
 +-----------+-----------------+-----------------+------------+-----+ <-- LBFGS
 | Parameter |      value      |    tolerance    |    units   | OK? | <-- LBFGS
 +-----------+-----------------+-----------------+------------+-----+ <-- LBFGS
 |  dE/ion   |   0.000000E+000 |   2.000000E-005 |         eV | No  | <-- LBFGS
 |  |F|max   |   9.309845E-001 |   5.000000E-002 |       eV/A | No  | <-- LBFGS
 |  |dR|max  |   0.000000E+000 |   1.000000E-003 |          A | No  | <-- LBFGS
 +-----------+-----------------+-----------------+------------+-----+ <-- LBFGS
  

================================================================================
 Starting LBFGS iteration          1 ...
================================================================================
  
 +------------+-------------+-------------+-----------------+ <-- min LBFGS
 |    Step    |   lambda    |   F.delta'  |    enthalpy     | <-- min LBFGS
 +------------+-------------+-------------+-----------------+ <-- min LBFGS
 |  previous  |    0.000000 |    2.085176 |  -271384.787532 | <-- min LBFGS
 +------------+-------------+-------------+-----------------+ <-- min LBFGS
  

--------------------------------------------------------------------------------
 LBFGS: starting iteration         1 with trial guess (lambda=  1.000000)
--------------------------------------------------------------------------------
 
                           -------------------------------
                                     Cell Contents
                           -------------------------------
 
            xxxxxxxxxxxxxxxxxxxxxxxxxxxxxxxxxxxxxxxxxxxxxxxxxxxxxxxxxxxxxxxxx
            x  Element         Atom        Fractional coordinates of atoms  x
            x                 Number           u          v          w      x
            x---------------------------------------------------------------x
            x  Al                1         0.570140   0.307953   0.813417   x
            x  Al                2         0.818148   0.308856   0.812792   x
            x  Al                3         0.568942   0.558660   0.814336   x
            x  Al                4         0.817610   0.558334   0.813250   x
            x  Al                5         0.573899   0.808663   0.809663   x
            x  Al                6         0.818466   0.807825   0.812450   x
            x  Al                7         0.571080   0.058598   0.813103   x
            x  Al                8         0.819199   0.058781   0.812124   x
            x  Al                9         0.569420   0.306735   0.063298   x
            x  Al               10         0.818586   0.308127   0.062635   x
            x  Al               11         0.573560   0.553984   0.062761   x
            x  Al               12         0.817563   0.558324   0.062581   x
            x  Al               13         0.576429   0.813467   0.063072   x
            x  Al               14         0.818948   0.808611   0.062401   x
            x  Al               15         0.573191   0.057768   0.059264   x
            x  Al               16         0.819599   0.058538   0.062279   x
            x  Al               17         0.576454   0.302540   0.312570   x
            x  Al               18         0.818855   0.308572   0.312846   x
            x  Al               19         0.574786   0.563944   0.311365   x
            x  Al               20         0.817882   0.558896   0.312621   x
            x  Al               21         0.574758   0.808796   0.315637   x
            x  Al               22         0.819385   0.808400   0.313316   x
            x  Al               23         0.576841   0.058145   0.318833   x
            x  Al               24         0.820241   0.057874   0.313519   x
            x  Al               25         0.572358   0.308722   0.562874   x
            x  Al               26         0.818515   0.309366   0.563703   x
            x  Al               27         0.569726   0.558419   0.563507   x
            x  Al               28         0.818002   0.558383   0.563431   x
            x  Al               29         0.570124   0.808022   0.563635   x
            x  Al               30         0.819405   0.807661   0.563728   x
            x  Al               31         0.571896   0.058090   0.562376   x
            x  Al               32         0.820069   0.058460   0.564132   x
            x  Al               33         0.328759   0.182906   0.683425   x
            x  Al               34         0.056115   0.057386   0.557811   x
            x  Al               35         0.192437   0.189893   0.555171   x
            x  Al               36         0.321898   0.935127   0.688846   x
            x  Al               37         0.192799   0.929488   0.554373   x
            x  Al               38         0.318474   0.687202   0.690557   x
            x  Al               39         0.074735   0.687483   0.678666   x
            x  Al               40         0.197897   0.188954   0.322425   x
            x  Al               41         0.066553   0.805913   0.315367   x
            x  Al               42         0.325171   0.685512   0.437997   x
            x  Al               43         0.192502   0.667395   0.313581   x
            x  Al               44         0.440289   0.432740   0.320404   x
            x  Al               45         0.328015   0.549007   0.561099   x
            x  Al               46         0.193060   0.432830   0.311313   x
            x  Al               47         0.061256   0.434683   0.438647   x
            x  Al               48         0.317572   0.061456   0.062247   x
            x  Al               49         0.439713   0.058159   0.195450   x
            x  Al               50         0.186414   0.054660   0.934810   x
            x  Al               51         0.067792   0.184811   0.191130   x
            x  Al               52         0.433084   0.813794   0.189985   x
            x  Al               53         0.070994   0.945341   0.191504   x
            x  Al               54         0.201168   0.808190   0.181927   x
            x  Al               55         0.431754   0.675081   0.062436   x
            x  Al               56         0.322479   0.430429   0.180485   x
            x  Al               57         0.183680   0.424903   0.060273   x
            x  Al               58         0.187149   0.186050   0.806516   x
            x  Al               59         0.433679   0.814964   0.935642   x
            x  Al               60         0.192275   0.810951   0.937169   x
            x  Al               61         0.191367   0.426227   0.804361   x
            x  Al               62         0.192585   0.426368   0.569001   x
            x  Al               63         0.187739   0.565419   0.933168   x
            x  Ni                1         0.567726   0.431644   0.937542   x
            x  Ni                2         0.693823   0.307868   0.938015   x
            x  Ni                3         0.693253   0.433465   0.813371   x
            x  Ni                4         0.817670   0.433512   0.938004   x
            x  Ni                5         0.942576   0.308933   0.937585   x
            x  Ni                6         0.942475   0.433923   0.812883   x
            x  Ni                7         0.563500   0.686757   0.941384   x
            x  Ni                8         0.692552   0.558754   0.937944   x
            x  Ni                9         0.692629   0.682723   0.813818   x
            x  Ni               10         0.818296   0.683174   0.937724   x
            x  Ni               11         0.942344   0.558442   0.937782   x
            x  Ni               12         0.942770   0.683010   0.812792   x
            x  Ni               13         0.567984   0.932178   0.935918   x
            x  Ni               14         0.694637   0.808561   0.936881   x
            x  Ni               15         0.695034   0.933897   0.811862   x
            x  Ni               16         0.819410   0.933433   0.936862   x
            x  Ni               17         0.942827   0.808038   0.937334   x
            x  Ni               18         0.943286   0.933017   0.812362   x
            x  Ni               19         0.568232   0.183326   0.937575   x
            x  Ni               20         0.695037   0.058274   0.936468   x
            x  Ni               21         0.693944   0.183609   0.812457   x
            x  Ni               22         0.818836   0.183564   0.937275   x
            x  Ni               23         0.943218   0.058488   0.937167   x
            x  Ni               24         0.943145   0.184003   0.812575   x
            x  Ni               25         0.566539   0.431963   0.191466   x
            x  Ni               26         0.694310   0.306828   0.187186   x
            x  Ni               27         0.693322   0.431685   0.063611   x
            x  Ni               28         0.818216   0.433413   0.187611   x
            x  Ni               29         0.942608   0.308789   0.187882   x
            x  Ni               30         0.942234   0.433784   0.062731   x
            x  Ni               31         0.563904   0.687292   0.183500   x
            x  Ni               32         0.693709   0.559244   0.187162   x
            x  Ni               33         0.693573   0.683791   0.062538   x
            x  Ni               34         0.818697   0.683860   0.187295   x
            x  Ni               35         0.942154   0.558674   0.187768   x
            x  Ni               36         0.942681   0.683339   0.062588   x
            x  Ni               37         0.567527   0.935038   0.190051   x
            x  Ni               38         0.694734   0.809608   0.188158   x
            x  Ni               39         0.696276   0.934785   0.062420   x
            x  Ni               40         0.819948   0.933511   0.187965   x
            x  Ni               41         0.943157   0.808233   0.187798   x
            x  Ni               42         0.943188   0.933208   0.062391   x
            x  Ni               43         0.568405   0.179074   0.188249   x
            x  Ni               44         0.694970   0.057575   0.188065   x
            x  Ni               45         0.694609   0.182765   0.062534   x
            x  Ni               46         0.819562   0.182851   0.187431   x
            x  Ni               47         0.943684   0.058294   0.187886   x
            x  Ni               48         0.943090   0.183568   0.062439   x
            x  Ni               49         0.570473   0.433600   0.434656   x
            x  Ni               50         0.695953   0.308377   0.438640   x
            x  Ni               51         0.694500   0.433447   0.312198   x
            x  Ni               52         0.818287   0.434126   0.438132   x
            x  Ni               53         0.942802   0.309253   0.438186   x
            x  Ni               54         0.942314   0.434043   0.312933   x
            x  Ni               55         0.568289   0.684375   0.439172   x
            x  Ni               56         0.694064   0.559257   0.438223   x
            x  Ni               57         0.694833   0.684815   0.312090   x
            x  Ni               58         0.818753   0.683254   0.438379   x
            x  Ni               59         0.942502   0.558697   0.438003   x
            x  Ni               60         0.942557   0.683309   0.312999   x
            x  Ni               61         0.570290   0.932641   0.439839   x
            x  Ni               62         0.695591   0.808082   0.439751   x
            x  Ni               63         0.696664   0.933232   0.314141   x
            x  Ni               64         0.820228   0.932816   0.439188   x
            x  Ni               65         0.943428   0.807822   0.438422   x
            x  Ni               66         0.943701   0.933019   0.313367   x
            x  Ni               67         0.571302   0.182832   0.439421   x
            x  Ni               68         0.697491   0.057921   0.440351   x
            x  Ni               69         0.697743   0.182016   0.313432   x
            x  Ni               70         0.820121   0.183639   0.439154   x
            x  Ni               71         0.943767   0.058307   0.438522   x
            x  Ni               72         0.942874   0.183639   0.313195   x
            x  Ni               73         0.567661   0.433845   0.689271   x
            x  Ni               74         0.693382   0.308807   0.688367   x
            x  Ni               75         0.692916   0.434198   0.563008   x
            x  Ni               76         0.817841   0.433900   0.688191   x
            x  Ni               77         0.943046   0.309298   0.687957   x
            x  Ni               78         0.942747   0.434103   0.563111   x
            x  Ni               79         0.567359   0.683266   0.687861   x
            x  Ni               80         0.692803   0.558385   0.688681   x
            x  Ni               81         0.693858   0.682900   0.563613   x
            x  Ni               82         0.818182   0.682645   0.688467   x
            x  Ni               83         0.942717   0.558430   0.688116   x
            x  Ni               84         0.942995   0.682898   0.563272   x
            x  Ni               85         0.568575   0.933868   0.686986   x
            x  Ni               86         0.694789   0.807919   0.687319   x
            x  Ni               87         0.695374   0.932936   0.563924   x
            x  Ni               88         0.819446   0.933274   0.687949   x
            x  Ni               89         0.943152   0.807747   0.688066   x
            x  Ni               90         0.943898   0.932885   0.563423   x
            x  Ni               91         0.568169   0.182811   0.687499   x
[...]
            Ni 169 -- Ni 171                -0.00        -0.00          2.58888
            Ni 37  -- Ni 139                -0.02        -0.00          2.58890
             Al 23 -- Ni 44                  0.21         0.00          2.58916
             Al 56 -- Ni 147                 0.17         0.00          2.58925
             Al 60 -- Ni 106                 0.19         0.00          2.58930
             Al 46 -- Ni 123                 0.16        -0.00          2.58962
             Al 25 -- Ni 49                  0.19        -0.00          2.58973
            Ni 121 -- Ni 191                 0.00        -0.00          2.58989
             Al 23 -- Ni 37                  0.20         0.00          2.59012
            Ni 35  -- Ni 129                 0.10         0.00          2.59017
             Al 36 -- Ni 188                 0.19        -0.00          2.59028
            Ni 14  -- Ni 39                  0.03        -0.00          2.59032
             Al 40 -- Ni 145                 0.17        -0.00          2.59050
             Al 9  -- Ni 25                  0.20         0.00          2.59057
            Ni 106 -- Ni 131                 0.01         0.00          2.59057
            Ni 119 -- Ni 144                 0.08         0.00          2.59072
            Ni 29  -- Ni 72                  0.01         0.00          2.59077
            Ni 127 -- Ni 135                 0.09         0.00          2.59082
             Al 15 -- Ni 144                 0.17         0.00          2.59091
             Al 9  -- Ni 43                  0.21        -0.00          2.59101
            Ni 49  -- Ni 75                  0.06        -0.00          2.59113
            Ni 110 -- Ni 112                 0.05         0.00          2.59120
            Ni 29  -- Ni 48                  0.01         0.00          2.59153
             Al 61 -- Ni 97                  0.18        -0.00          2.59172
            Ni 111 -- Ni 113                 0.08        -0.00          2.59194
             Al 36 -- Ni 190                 0.17         0.00          2.59247
             Al 15 -- Ni 44                  0.20         0.00          2.59285
            Ni 55  -- Ni 57                  0.02        -0.00          2.59296
             Al 49 -- Ni 37                  0.17        -0.00          2.59318
            Ni 13  -- Ni 139                -0.00        -0.00          2.59342
            Ni 152 -- Ni 158                 0.03        -0.00          2.59356
            Ni 133 -- Ni 135                 0.02         0.00          2.59392
             Al 22 -- Ni 62                  0.19         0.00          2.59443
            Ni 114 -- Ni 140                 0.05         0.00          2.59464
            Ni 169 -- Ni 175                -0.03         0.00          2.59484
            Ni 37  -- Ni 38                  0.07         0.00          2.59494
             Al 62 -- Ni 179                 0.11         0.00          2.59499
            Ni 102 -- Ni 172                 0.06         0.00          2.59539
            Ni 71  -- Ni 96                  0.01        -0.00          2.59545
             Al 38 -- Ni 188                 0.17        -0.00          2.59562
             Al 15 -- Ni 37                  0.20         0.00          2.59589
             Al 34 -- Ni 162                 0.16         0.00          2.59603
            Ni 49  -- Ni 146                -0.01        -0.00          2.59661
             Al 16 -- Ni 40                  0.19         0.00          2.59667
            Ni 101 -- Ni 144                 0.09        -0.00          2.59680
            Ni 25  -- Ni 32                  0.03        -0.00          2.59680
            Ni 130 -- Ni 149                -0.01        -0.00          2.59693
             Al 60 -- Ni 113                 0.19         0.00          2.59694
            Ni 138 -- Ni 139                -0.01         0.00          2.59711
            Ni 172 -- Ni 177                -0.01         0.00          2.59719
            Ni 129 -- Ni 132                 0.12         0.00          2.59747
             Al 56 -- Ni 130                 0.13         0.00          2.59786
            Ni 117 -- Ni 122                 0.04        -0.00          2.59792
            Ni 155 -- Ni 156                 0.06        -0.00          2.59813
             Al 9  -- Ni 144                 0.19         0.00          2.59827
            Ni 67  -- Ni 165                 0.02        -0.00          2.59829
            Ni 95  -- Ni 96                  0.01         0.00          2.59844
            Ni 129 -- Ni 149                 0.09         0.00          2.59846
            Ni 13  -- Ni 120                 0.04         0.00          2.59895
             Al 38 -- Ni 182                 0.19         0.00          2.59903
             Al 45 -- Ni 177                 0.14         0.00          2.59921
             Al 27 -- Ni 49                  0.19        -0.00          2.59935
            Ni 13  -- Ni 20                  0.06         0.00          2.59936
             Al 58 -- Ni 117                 0.15         0.00          2.59966
            Ni 113 -- Ni 139                 0.01         0.00          2.60009
            Ni 108 -- Ni 182                 0.08         0.00          2.60032
            Ni 31  -- Ni 134                 0.04         0.00          2.60036
            Ni 65  -- Ni 148                 0.04        -0.00          2.60037
             Al 24 -- Ni 46                  0.18        -0.00          2.60045
             Al 63 -- Ni 97                  0.17        -0.00          2.60047
            Ni 133 -- Ni 160                -0.03         0.00          2.60054
             Al 11 -- Ni 33                  0.19         0.00          2.60066
            Ni 55  -- Ni 181                 0.07        -0.00          2.60078
            Ni 104 -- Ni 177                 0.05         0.00          2.60115
            Ni 41  -- Ni 66                 -0.03        -0.00          2.60131
            Ni 155 -- Ni 157                 0.07        -0.00          2.60200
            Ni 99  -- Ni 169                 0.01         0.00          2.60218
            Ni 59  -- Ni 78                 -0.00        -0.00          2.60218
            Ni 13  -- Ni 39                  0.01         0.00          2.60226
            Ni 142 -- Ni 143                 0.05         0.00          2.60227
             Al 49 -- Ni 139                 0.18        -0.00          2.60247
             Al 51 -- Ni 124                 0.19        -0.00          2.60250
            Ni 111 -- Ni 115                 0.04        -0.00          2.60274
            Ni 112 -- Ni 122                 0.11         0.00          2.60387
            Ni 117 -- Ni 191                 0.08        -0.00          2.60388
            Ni 41  -- Ni 42                  0.03        -0.00          2.60412
            Ni 156 -- Ni 167                 0.12        -0.00          2.60419
             Al 58 -- Ni 122                 0.18        -0.00          2.60420
             Al 40 -- Ni 124                 0.19         0.00          2.60421
             Al 50 -- Ni 142                 0.15         0.00          2.60421
             Al 19 -- Ni 151                 0.17         0.00          2.60424
            Ni 170 -- Ni 171                -0.03         0.00          2.60435
             Al 19 -- Ni 49                  0.20        -0.00          2.60438
            Ni 161 -- Ni 162                -0.01         0.00          2.60441
            Ni 173 -- Ni 192                 0.00        -0.00          2.60445
            Ni 138 -- Ni 159                 0.02        -0.00          2.60533
             Al 35 -- Ni 122                 0.18        -0.00          2.60544
            Ni 130 -- Ni 131                 0.11        -0.00          2.60620
            Ni 49  -- Ni 151                 0.03        -0.00          2.60660
            Ni 53  -- Ni 54                  0.00         0.00          2.60690
             Al 57 -- Ni 135                 0.15         0.00          2.60696
             Al 40 -- Ni 143                 0.19        -0.00          2.60743
            Ni 169 -- Ni 172                 0.00        -0.00          2.60751
            Ni 178 -- Ni 185                 0.07        -0.00          2.60762
            Ni 102 -- Ni 109                 0.01         0.00          2.60784
             Al 17 -- Ni 146                 0.15         0.00          2.60841
             Al 11 -- Ni 7                   0.19        -0.00          2.60868
            Ni 129 -- Ni 130                 0.09        -0.00          2.60940
            Ni 71  -- Ni 90                  0.02        -0.00          2.60949
            Ni 47  -- Ni 163                 0.05         0.00          2.60977
            Ni 158 -- Ni 181                -0.01        -0.00          2.60979
            Ni 168 -- Ni 177                 0.04        -0.00          2.60985
            Ni 178 -- Ni 184                 0.03         0.00          2.60998
             Al 48 -- Ni 120                 0.19        -0.00          2.61029
             Al 11 -- Ni 31                  0.19        -0.00          2.61050
            Ni 25  -- Ni 127                 0.02         0.00          2.61064
            Ni 54  -- Ni 59                  0.00         0.00          2.61079
            Ni 148 -- Ni 150                 0.02        -0.00          2.61186
             Al 43 -- Ni 155                 0.17         0.00          2.61215
            Ni 53  -- Ni 78                  0.00         0.00          2.61237
            Ni 143 -- Ni 167                 0.01        -0.00          2.61261
            Ni 26  -- Ni 43                  0.06        -0.00          2.61307
             Al 41 -- Ni 129                 0.19        -0.00          2.61440
            Ni 115 -- Ni 117                 0.10        -0.00          2.61444
            Ni 60  -- Ni 65                  0.01        -0.00          2.61452
            Ni 110 -- Ni 118                 0.04         0.00          2.61460
            Ni 102 -- Ni 108                 0.11         0.00          2.61526
             Al 34 -- Ni 122                 0.16         0.00          2.61547
             Al 51 -- Ni 163                 0.16         0.00          2.61579
            Ni 108 -- Ni 111                 0.03         0.00          2.61627
            Ni 126 -- Ni 128                 0.09         0.00          2.61634
             Al 56 -- Ni 124                 0.14        -0.00          2.61716
             Al 36 -- Ni 184                 0.18         0.00          2.61721
             Al 53 -- Ni 137                 0.18         0.00          2.61732
            Ni 65  -- Ni 66                  0.01        -0.00          2.61745
             Al 61 -- Ni 104                 0.15         0.00          2.61781
            Ni 152 -- Ni 160                 0.01         0.00          2.61796
            Ni 127 -- Ni 134                 0.02         0.00          2.61813
            Ni 152 -- Ni 153                 0.10        -0.00          2.61845
             Al 11 -- Ni 107                 0.16         0.00          2.61936
             Al 58 -- Ni 119                 0.17        -0.00          2.61936
             Al 21 -- Ni 159                 0.15         0.00          2.61947
            Ni 138 -- Ni 160                 0.05        -0.00          2.62009
            Ni 37  -- Ni 39                  0.01        -0.00          2.62009
            Ni 42  -- Ni 47                 -0.01         0.00          2.62034
             Al 11 -- Ni 134                 0.16         0.00          2.62096
             Al 39 -- Ni 178                 0.19         0.00          2.62105
             Al 50 -- Ni 117                 0.15         0.00          2.62106
            Ni 174 -- Ni 182                 0.00        -0.00          2.62139
             Al 36 -- Ni 122                 0.17         0.00          2.62228
            Ni 150 -- Ni 153                 0.10         0.00          2.62249
            Ni 140 -- Ni 141                 0.07        -0.00          2.62353
            Ni 136 -- Ni 141                 0.01        -0.00          2.62384
            Ni 178 -- Ni 179                 0.05        -0.00          2.62394
             Al 5  -- Ni 115                 0.15         0.00          2.62433
             Al 56 -- Ni 153                 0.16         0.00          2.62463
            Ni 121 -- Ni 173                 0.01         0.00          2.62526
            Ni 7   -- Ni 107                 0.02         0.00          2.62564
            Ni 158 -- Ni 160                 0.11        -0.00          2.62564
            Ni 159 -- Ni 160                 0.09        -0.00          2.62604
             Al 42 -- Ni 153                 0.20        -0.00          2.62610
             Al 47 -- Ni 150                 0.18         0.00          2.62665
             Al 5  -- Ni 7                   0.19         0.00          2.62818
            Ni 154 -- Ni 155                 0.06        -0.00          2.62900
            Ni 106 -- Ni 135                 0.04         0.00          2.62933
             Al 37 -- Ni 190                 0.15        -0.00          2.62938
            Ni 156 -- Ni 157                 0.12        -0.00          2.63075
            Ni 124 -- Ni 125                 0.03         0.00          2.63084
             Al 21 -- Ni 31                  0.19         0.00          2.63091
            Ni 114 -- Ni 138                 0.00         0.00          2.63199
            Ni 155 -- Ni 188                 0.03        -0.00          2.63290
             Al 19 -- Ni 31                  0.17         0.00          2.63314
            Ni 126 -- Ni 127                -0.01         0.00          2.63415
             Al 63 -- Ni 100                 0.15         0.00          2.63489
             Al 52 -- Ni 37                  0.15         0.00          2.63612
             Al 59 -- Ni 7                   0.15        -0.00          2.63827
            Ni 25  -- Ni 27                  0.05        -0.00          2.63861
            Ni 162 -- Ni 164                 0.01        -0.00          2.63967
            Ni 156 -- Ni 162                 0.13        -0.00          2.64088
             Al 23 -- Ni 166                 0.14        -0.00          2.64218
             Al 35 -- Ni 190                 0.13        -0.00          2.64453
             Al 35 -- Ni 189                 0.15        -0.00          2.64487
             Al 48 -- Al 50                  0.25         0.00          2.64673
            Ni 161 -- Ni 170                -0.02        -0.00          2.64683
             Al 48 -- Al 49                  0.26        -0.00          2.64695
             Al 23 -- Ni 159                 0.13        -0.00          2.64810
            Ni 7   -- Ni 8                   0.06         0.00          2.64861
            Ni 114 -- Ni 133                -0.03         0.00          2.64937
             Al 50 -- Al 58                  0.24         0.00          2.65090
             Al 37 -- Ni 122                 0.15         0.00          2.65272
             Al 45 -- Ni 178                 0.11        -0.00          2.65316
            Ni 31  -- Ni 32                  0.05        -0.00          2.65358
             Al 13 -- Ni 139                 0.16         0.00          2.65411
             Al 45 -- Al 62                  0.29        -0.00          2.65698
             Al 43 -- Ni 160                 0.15         0.00          2.65768
             Al 50 -- Ni 119                 0.14        -0.00          2.65780
             Al 3  -- Ni 7                   0.17        -0.00          2.65793
             Al 52 -- Ni 31                  0.15         0.00          2.65844
            Ni 149 -- Ni 150                 0.01        -0.00          2.66055
             Al 44 -- Al 56                  0.28         0.00          2.66143
             Al 33 -- Ni 122                 0.15        -0.00          2.66253
            Ni 7   -- Ni 9                   0.06         0.00          2.66490
             Al 42 -- Al 43                  0.24        -0.00          2.66661
             Al 23 -- Al 49                  0.24        -0.00          2.67079
            Ni 164 -- Ni 170                 0.05        -0.00          2.67260
            Ni 168 -- Ni 169                 0.03         0.00          2.67489
            Ni 31  -- Ni 57                  0.05        -0.00          2.67998
             Al 46 -- Al 56                  0.26         0.00          2.68407
            Ni 134 -- Ni 135                 0.08         0.00          2.68423
             Al 42 -- Al 45                  0.25         0.00          2.69085
             Al 56 -- Al 57                  0.22         0.00          2.69228
             Al 44 -- Ni 134                 0.10        -0.00          2.69986
             Al 46 -- Al 47                  0.25         0.00          2.70573
             Al 11 -- Al 55                  0.20         0.00          2.70674
             Al 5  -- Al 59                  0.20         0.00          2.71162
             Al 36 -- Al 37                  0.22        -0.00          2.72418
             Al 34 -- Al 35                  0.20        -0.00          2.72523
             Al 44 -- Ni 126                 0.08        -0.00          2.72783
             Al 47 -- Al 62                  0.22        -0.00          2.73210
             Al 33 -- Al 35                  0.21        -0.00          2.73239
             Al 57 -- Al 63                  0.19         0.00          2.73714
             Al 44 -- Ni 25                  0.11         0.00          2.73858
             Al 34 -- Al 37                  0.20         0.00          2.73967
             Al 33 -- Al 58                  0.21         0.00          2.73973
             Al 21 -- Al 52                  0.20        -0.00          2.74161
             Al 61 -- Al 63                  0.20         0.00          2.74960
             Al 17 -- Al 44                  0.17        -0.00          2.75610
             Al 41 -- Al 43                  0.17        -0.00          2.75738
             Al 55 -- Al 59                  0.19         0.00          2.75909
             Al 52 -- Al 55                  0.20         0.00          2.76053
             Al 42 -- Ni 150                 0.13        -0.00          2.76114
             Al 38 -- Al 45                  0.17        -0.00          2.76265
             Al 40 -- Al 51                  0.20        -0.00          2.76966
             Al 19 -- Al 44                  0.17        -0.00          2.77022
             Al 15 -- Al 49                  0.19        -0.00          2.77808
             Al 53 -- Al 54                  0.18         0.00          2.78028
             Al 43 -- Al 54                  0.16         0.00          2.79067
             Al 41 -- Al 53                  0.17        -0.00          2.80175
             Al 13 -- Al 59                  0.17         0.00          2.82534
             Al 13 -- Al 52                  0.17        -0.00          2.83545
             Al 41 -- Al 54                  0.12        -0.00          2.87454
             Al 13 -- Al 55                  0.08         0.00          2.96493
================================================================================
 

Writing analysis data to castep.castep_bin

Writing model to castep.check
 
 A BibTeX formatted list of references used in this run has been written to 
 castep.bib
 
Initialisation time =     13.61 s
Calculation time    =  23164.96 s
Finalisation time   =     12.07 s
Total time          =  23190.64 s
Peak Memory Use     = 2361220 kB
  
Overall parallel efficiency rating: Good (71%)                                  
  
Data was distributed by:-
G-vector (48-way); efficiency rating: Good (71%)                                
