 +-------------------------------------------------+
 |                                                 |
 |      CCC   AA    SSS  TTTTT  EEEEE  PPPP        |
 |     C     A  A  S       T    E      P   P       |
 |     C     AAAA   SS     T    EEE    PPPP        |
 |     C     A  A     S    T    E      P           |
 |      CCC  A  A  SSS     T    EEEEE  P           |
 |                                                 |
 +-------------------------------------------------+
 |                                                 |
 | Welcome to Academic Release CASTEP version 22.11|
 | Ab Initio Total Energy Program                  |
 |                                                 |
 | Authors:                                        |
 | M. Segall, M. Probert, C. Pickard, P. Hasnip,   |
 | S. Clark, K. Refson, J. R. Yates, M. Payne      |
 |                                                 |
 | Contributors:                                   |
 | P. Lindan, P. Haynes, J. White, V. Milman,      |
 | N. Govind, M. Gibson, P. Tulip, V. Cocula,      |
 | B. Montanari, D. Quigley, M. Glover,            |
 | L. Bernasconi, A. Perlov, M. Plummer,           |
 | E. McNellis, J. Meyer, J. Gale, D. Jochym       |
 | J. Aarons, B. Walker, R. Gillen, D. Jones       |
 | T. Green, I. J. Bush, C. J. Armstrong,          |
 | E. J. Higgins, E. L. Brown, M. S. McFly,        |
 | J. Wilkins, B-C. Shih, P. J. P. Byrne,          |
 | R. J. Maurer, J. C. Womack, J. Dziedzic,        |
 | A. Bartok-Partay, L. LeBlanc, T. K. Stenczel,   |
 | J. Kermode, S. Sturniolo, B. Shi, B. Durham     |
 | M. Evans, M. J. Smith                           |
 |                                                 |
 | Copyright (c) 2000 - 2021                       |
 |                                                 |
 |     Distributed under license from Cambridge    |
 |     Enterprise for academic use only.           |
 |                                                 |
 | Please cite                                     |
 |                                                 |
 |     "First principles methods using CASTEP"     |
 |                                                 |
 |         Zeitschrift fuer Kristallographie       |
 |           220(5-6) pp. 567-570 (2005)           |
 |                                                 |
 | S. J. Clark, M. D. Segall, C. J. Pickard,       |
 | P. J. Hasnip, M. J. Probert, K. Refson,         |
 | M. C. Payne                                     |
 |                                                 |
 |       in all publications arising from          |
 |              your use of CASTEP                 |
 |                                                 |
 +-------------------------------------------------+
 |                                                 |
 |              http://www.castep.org              |
 |                                                 |
 +-------------------------------------------------+
 
 
 
 Compiled for linux_x86_64_ifort on Wed, 18 Jan 2023 15:42:19 +0000
 from code version b807d1bba+  Castep221_branch  Wed Sep 14 11:18:35 2022 +0100
 Compiler: Intel Fortran 19.0.5.281; Optimisation: fast
 MATHLIBS: Intel MKL(2019.0.5) (LAPACK version 3.7.0)
 FFT Lib : mkl
 Fundamental constants values: CODATA 2014
 
 Run started: Wed, 26 Apr 2023 16:51:08 +0100
 
 Atomic calculation performed for Al: 1s2 2s2 2p6 3s2 3p1
 
 Converged in 52 iterations to an ae energy of -6606.982 eV
 
   ============================================================                
   | Pseudopotential Report - Date of generation 26-04-2023   |                
   ------------------------------------------------------------                
   | Element: Al Ionic charge:  3.00 Level of theory: RPBE    |                
   | Atomic Solver: Koelling-Harmon                           |                
   |                                                          |                
   |               Reference Electronic Structure             |                
   |         Orbital         Occupation         Energy        |                
   |            3s              2.000           -0.284        |                
   |            3p              1.000           -0.100        |                
   |                                                          |                
   |                 Pseudopotential Definition               |                
   |        Beta     l      e      Rc     scheme   norm       |                
   |          1      0   -0.284   2.192     qc      0         |                
   |          2      0    0.250   2.192     qc      0         |                
   |          3      1   -0.100   2.192     qc      0         |                
   |          4      1    0.250   2.192     qc      0         |                
   |          5      2    0.000   2.000     qc      0         |                
   |          6      2    0.250   2.000     qc      0         |                
   |         loc     3    0.000   2.192     pn      0         |                
   |                                                          |                
   | Augmentation charge Rinner = 1.398                       |                
   | Partial core correction Rc = 1.398                       |                
   ------------------------------------------------------------                
   | "3|2.2|2.2|1.4|4|5|5|30:31:32U2U2"                       |                
   ------------------------------------------------------------                
   |      Author: Chris J. Pickard, Cambridge University      |                
   ============================================================                
 
 Atomic calculation performed for Ni: 1s2 2s2 2p6 3s2 3p6 3d8 4s2
 
 Converged in 109 iterations to an ae energy of -41381.414 eV
 
   ============================================================                
   | Pseudopotential Report - Date of generation 26-04-2023   |                
   ------------------------------------------------------------                
   | Element: Ni Ionic charge: 10.00 Level of theory: RPBE    |                
   | Atomic Solver: Koelling-Harmon                           |                
   |                                                          |                
   |               Reference Electronic Structure             |                
   |         Orbital         Occupation         Energy        |                
   |            3d              8.000           -0.324        |                
   |            4s              2.000           -0.204        |                
   |                                                          |                
   |                 Pseudopotential Definition               |                
   |        Beta     l      e      Rc     scheme   norm       |                
   |          1      0   -0.204   2.401     qc      0         |                
   |          2      0    0.250   2.401     qc      0         |                
   |          3      1    0.000   2.401     qc      0         |                
   |          4      1    0.250   2.401     qc      0         |                
   |          5      2   -0.324   1.999     qc      0         |                
   |          6      2    0.250   1.999     qc      0         |                
   |         loc     3    0.000   2.401     pn      0         |                
   |                                                          |                
   | Augmentation charge Rinner = 1.001                       |                
   | Partial core correction Rc = 1.001                       |                
   ------------------------------------------------------------                
   | "3|2.4|2.4|1.0|8|9|10|40:41:32U2U2(qc=5.5)"              |                
   ------------------------------------------------------------                
   |      Author: Chris J. Pickard, Cambridge University      |                
   ============================================================                
 
 Pseudo atomic calculation performed for Al 3s2 3p1
 
 Converged in 13 iterations to a total energy of -107.6593 eV
 
 Pseudo atomic calculation performed for Ni 3d8 4s2
 
 Converged in 41 iterations to a total energy of -1369.7890 eV
 Calculation parallelised over 128 processes.
 Data is distributed by G-vector(128-way)

 ************************************ Title ************************************
 

 ***************************** General Parameters ******************************
  
 output verbosity                               : normal  (1)
 write checkpoint data to                       : castep.check
 type of calculation                            : geometry optimization
 stress calculation                             : off
 density difference calculation                 : off
 electron localisation func (ELF) calculation   : off
 Hirshfeld analysis                             : off
 polarisation (Berry phase) analysis            : off
 molecular orbital projected DOS                : off
 deltaSCF calculation                           : off
 unlimited duration calculation
 timing information                             : on
 memory usage estimate                          : on
 write extra output files                       : on
 write final potential to formatted file        : off
 write final density to formatted file          : off
 write BibTeX reference list                    : on
 write OTFG pseudopotential files               : on
 write electrostatic potential file             : on
 write bands file                               : on
 checkpoint writing                             : both castep_bin and check files
  
 output         length unit                     : A
 output           mass unit                     : amu
 output           time unit                     : ps
 output         charge unit                     : e
 output           spin unit                     : hbar/2
 output         energy unit                     : eV
 output          force unit                     : eV/A
 output       velocity unit                     : A/ps
 output       pressure unit                     : GPa
 output     inv_length unit                     : 1/A
 output      frequency unit                     : cm-1
 output force constant unit                     : eV/A**2
 output         volume unit                     : A**3
 output   IR intensity unit                     : (D/A)**2/amu
 output         dipole unit                     : D
 output         efield unit                     : eV/A/e
 output        entropy unit                     : J/mol/K
 output    efield chi2 unit                     : pm/V
  
 wavefunctions paging                           : none
 random number generator seed                   : randomised (165110114)
 data distribution                              : optimal for this architecture
 optimization strategy                          : maximize speed(+++)

 *********************** Exchange-Correlation Parameters ***********************
  
 using functional                               : revised Perdew Burke Ernzerhof
 relativistic treatment                         : Koelling-Harmon
 DFT+D: Semi-empirical dispersion correction    : off

 ************************* Pseudopotential Parameters **************************
  
 pseudopotential representation                 : reciprocal space
 <beta|phi> representation                      : reciprocal space
 spin-orbit coupling                            : off

 **************************** Basis Set Parameters *****************************
  
 plane wave basis set cut-off                   :   900.0000   eV
 size of standard grid                          :     1.7500
 size of   fine   gmax                          :    26.8966   1/A
 finite basis set correction                    : none

 **************************** Electronic Parameters ****************************
  
 number of  electrons                           :  2109.    
 net charge of system                           :  0.000    
 net spin   of system                           :  1.000    
 number of  up  spins                           :  1055.    
 number of down spins                           :  1054.    
 treating system as spin-polarized
 number of bands                                :       1167

 ********************* Electronic Minimization Parameters **********************
  
 Method: Treating system as metallic with density mixing treatment of electrons,
         and number of  SD  steps               :          1
         and number of  CG  steps               :          4
  
 total energy / atom convergence tol.           : 0.1000E-05   eV
 eigen-energy convergence tolerance             : 0.2185E-06   eV
 max force / atom convergence tol.              : ignored
 convergence tolerance window                   :          3   cycles
 max. number of SCF cycles                      :        200
 number of fixed-spin iterations                :         10
 smearing scheme                                : Gaussian
 smearing width                                 : 0.2000       eV
 Fermi energy convergence tolerance             : 0.2721E-13   eV
 periodic dipole correction                     : NONE
 periodically dump wavefunctions to             : castep.wvfn
 dump wavefunctions every                       :          1   SCF cycles

 ************************** Density Mixing Parameters **************************
  
 density-mixing scheme                          : Pulay
 max. length of mixing history                  :         20
 charge density mixing amplitude                : 0.8000    
   spin density mixing amplitude                :  2.000    
 cut-off energy for mixing                      :  900.0       eV

 *********************** Population Analysis Parameters ************************
  
 Population analysis with cutoff                :  3.000       A
 Population analysis output                     : summary and pdos components

 ********************** Geometry Optimization Parameters ***********************
  
 optimization method                            : LBFGS
 max. no. of LBFGS updates                      : unbounded
 variable cell method                           : fixed basis quality
 max. number of steps                           :         30
 estimated bulk modulus                         :  500.0       GPa
 estimated <frequency>                          :  1668.       cm-1
 geom line minimiser                            : on
 with line minimiser tolerance                  :     0.4000
  with spin fully able to relax for all steps
 total energy convergence tolerance             : 0.2000E-04   eV/atom
        max ionic |force| tolerance             : 0.5000E-01   eV/A
 max ionic |displacement| tolerance             : 0.1000E-02   A
   max |stress component| tolerance             : 0.1000       GPa
 convergence tolerance window                   :          2   steps
 backup results every                           :          5   steps
 write geom trajectory file                     : on

 *******************************************************************************
  
 
                           -------------------------------
                                      Unit Cell
                           -------------------------------
        Real Lattice(A)                      Reciprocal Lattice(1/A)
    14.4648280     0.0000000     0.0000000        0.434376773   0.000000000   0.000000000
     0.0000000    14.4648280     0.0000000        0.000000000   0.434376773   0.000000000
     0.0000000     0.0000000    14.4648280        0.000000000   0.000000000   0.434376773
 
                       Lattice parameters(A)       Cell Angles
                    a =     14.464828          alpha =   90.000000
                    b =     14.464828          beta  =   90.000000
                    c =     14.464828          gamma =   90.000000
 
                       Current cell volume =          3026.494030       A**3
                                   density =             4.285146   AMU/A**3
                                           =             7.115653     g/cm^3
 
                           -------------------------------
                                     Cell Contents
                           -------------------------------
                         Total number of ions in cell =  255
                      Total number of species in cell =    2
                        Max number of any one species =  192
 
            xxxxxxxxxxxxxxxxxxxxxxxxxxxxxxxxxxxxxxxxxxxxxxxxxxxxxxxxxxxx
            x  Element    Atom        Fractional coordinates of atoms  x
            x            Number           u          v          w      x
            x----------------------------------------------------------x
            x  Al           1         0.570601   0.062197   0.316192   x 
            x  Al           2         0.818104   0.063205   0.314870   x 
            x  Al           3         0.569933   0.314055   0.316812   x 
            x  Al           4         0.817841   0.312948   0.315101   x 
            x  Al           5         0.573403   0.564287   0.313117   x 
            x  Al           6         0.819328   0.562495   0.314235   x 
            x  Al           7         0.571323   0.811520   0.315914   x 
            x  Al           8         0.819417   0.812862   0.314191   x 
            x  Al           9         0.569907   0.060673   0.563070   x 
            x  Al          10         0.817711   0.063068   0.564832   x 
            x  Al          11         0.568935   0.314578   0.562630   x 
            x  Al          12         0.817391   0.312958   0.564934   x 
            x  Al          13         0.576300   0.565019   0.565190   x 
            x  Al          14         0.819266   0.562575   0.565074   x 
            x  Al          15         0.573855   0.811249   0.560930   x 
            x  Al          16         0.819414   0.812736   0.564776   x 
            x  Al          17         0.572652   0.060808   0.813992   x 
            x  Al          18         0.816826   0.063734   0.814718   x 
            x  Al          19         0.569572   0.314102   0.813541   x 
            x  Al          20         0.816414   0.312632   0.814675   x 
            x  Al          21         0.572995   0.563427   0.816678   x 
            x  Al          22         0.818852   0.561979   0.815581   x 
            x  Al          23         0.576727   0.811369   0.820237   x 
            x  Al          24         0.819095   0.812697   0.815456   x 
            x  Al          25         0.571735   0.062639   0.066565   x 
            x  Al          26         0.817295   0.063809   0.065352   x 
            x  Al          27         0.568931   0.313643   0.067129   x 
            x  Al          28         0.817147   0.312638   0.065066   x 
            x  Al          29         0.570107   0.562612   0.065622   x 
            x  Al          30         0.818901   0.561870   0.065082   x 
            x  Al          31         0.571828   0.811754   0.064636   x 
            x  Al          32         0.819396   0.812934   0.065615   x 
            x  Al          33         0.328752   0.935989   0.186644   x 
            x  Al          34         0.056522   0.810825   0.059222   x 
            x  Al          35         0.192866   0.943334   0.057116   x 
            x  Al          36         0.321751   0.688908   0.192043   x 
            x  Al          37         0.193290   0.683354   0.056419   x 
            x  Al          38         0.318097   0.444802   0.196322   x 
            x  Al          39         0.074375   0.443018   0.181407   x 
            x  Al          40         0.197986   0.942546   0.824574   x 
            x  Al          41         0.069503   0.559584   0.814425   x 
            x  Al          42         0.325435   0.438756   0.939647   x 
            x  Al          43         0.194120   0.421545   0.813194   x 
            x  Al          44         0.331148   0.182434   0.937198   x 
            x  Al          45         0.327708   0.310295   0.072237   x 
            x  Al          46         0.190490   0.186682   0.808831   x 
            x  Al          47         0.063188   0.189943   0.940682   x 
            x  Al          48         0.317619   0.816736   0.563902   x 
            x  Al          49         0.440739   0.812407   0.696482   x 
            x  Al          50         0.185990   0.809470   0.436879   x 
            x  Al          51         0.067655   0.939329   0.693314   x 
            x  Al          52         0.429315   0.565073   0.684145   x 
            x  Al          53         0.072485   0.699038   0.692974   x 
            x  Al          54         0.208139   0.562266   0.675573   x 
            x  Al          55         0.325573   0.316372   0.560078   x 
            x  Al          56         0.329911   0.180555   0.689602   x 
            x  Al          57         0.184649   0.177050   0.563225   x 
            x  Al          58         0.187008   0.940114   0.308835   x 
            x  Al          59         0.429185   0.566866   0.446210   x 
            x  Al          60         0.193962   0.565612   0.442736   x 
            x  Al          61         0.190976   0.180150   0.306725   x 
            x  Al          62         0.192183   0.182010   0.074232   x 
            x  Al          63         0.184178   0.319176   0.432527   x 
            x  Ni           1         0.568022   0.187123   0.439594   x 
            x  Ni           2         0.694191   0.062454   0.439805   x 
            x  Ni           3         0.693648   0.188240   0.315725   x 
            x  Ni           4         0.817677   0.188389   0.440090   x 
            x  Ni           5         0.942100   0.063394   0.439818   x 
            x  Ni           6         0.942222   0.188266   0.314788   x 
            x  Ni           7         0.567201   0.443142   0.439325   x 
            x  Ni           8         0.692566   0.314002   0.440059   x 
            x  Ni           9         0.694346   0.438129   0.315064   x 
            x  Ni          10         0.818741   0.437589   0.439846   x 
            x  Ni          11         0.942379   0.312829   0.439881   x 
            x  Ni          12         0.942775   0.437366   0.314547   x 
            x  Ni          13         0.567831   0.684893   0.439219   x 
            x  Ni          14         0.696120   0.563373   0.439203   x 
            x  Ni          15         0.695518   0.687955   0.314276   x 
            x  Ni          16         0.820023   0.687728   0.439312   x 
            x  Ni          17         0.942976   0.562303   0.439613   x 
            x  Ni          18         0.943386   0.687478   0.314264   x 
            x  Ni          19         0.568940   0.936949   0.438984   x 
            x  Ni          20         0.695449   0.811817   0.438750   x 
            x  Ni          21         0.694308   0.937324   0.314702   x 
            x  Ni          22         0.818802   0.937788   0.439466   x 
            x  Ni          23         0.943092   0.812939   0.439526   x 
            x  Ni          24         0.942832   0.938374   0.314547   x 
            x  Ni          25         0.449715   0.185891   0.813183   x 
            x  Ni          26         0.692509   0.061945   0.688650   x 
            x  Ni          27         0.692508   0.188011   0.564248   x 
            x  Ni          28         0.816616   0.188278   0.689614   x 
            x  Ni          29         0.941696   0.063497   0.690096   x 
            x  Ni          30         0.941858   0.188216   0.565043   x 
            x  Ni          31         0.566272   0.442104   0.689271   x 
            x  Ni          32         0.691197   0.313737   0.688765   x 
            x  Ni          33         0.694052   0.438177   0.564730   x 
            x  Ni          34         0.817986   0.437415   0.690102   x 
            x  Ni          35         0.941928   0.312734   0.690137   x 
            x  Ni          36         0.942570   0.437445   0.565069   x 
            x  Ni          37         0.566969   0.687733   0.690983   x 
            x  Ni          38         0.694998   0.563575   0.690646   x 
            x  Ni          39         0.696409   0.688214   0.564807   x 
            x  Ni          40         0.819815   0.687651   0.690377   x 
            x  Ni          41         0.942844   0.562197   0.690340   x 
            x  Ni          42         0.943144   0.687510   0.564926   x 
            x  Ni          43         0.569140   0.933220   0.689794   x 
            x  Ni          44         0.694560   0.811486   0.690095   x 
            x  Ni          45         0.694760   0.936901   0.564323   x 
            x  Ni          46         0.818402   0.937781   0.689783   x 
            x  Ni          47         0.943041   0.812955   0.690268   x 
            x  Ni          48         0.942410   0.938250   0.564871   x 
            x  Ni          49         0.568197   0.188239   0.940061   x 
            x  Ni          50         0.693317   0.063419   0.940454   x 
            x  Ni          51         0.691521   0.188255   0.813989   x 
            x  Ni          52         0.816716   0.188497   0.939891   x 
            x  Ni          53         0.941924   0.063852   0.939912   x 
            x  Ni          54         0.941566   0.188330   0.814942   x 
            x  Ni          55         0.566951   0.438109   0.940692   x 
            x  Ni          56         0.691687   0.313056   0.940193   x 
            x  Ni          57         0.693177   0.437689   0.814929   x 
            x  Ni          58         0.817816   0.436895   0.940183   x 
            x  Ni          59         0.941991   0.312623   0.939836   x 
            x  Ni          60         0.942308   0.437093   0.815210   x 
            x  Ni          61         0.569651   0.686579   0.941446   x 
            x  Ni          62         0.694512   0.561943   0.941061   x 
            x  Ni          63         0.696175   0.687004   0.815913   x 
            x  Ni          64         0.819577   0.686999   0.940786   x 
            x  Ni          65         0.943032   0.561924   0.940166   x 
            x  Ni          66         0.943116   0.687424   0.815467   x 
            x  Ni          67         0.570954   0.936908   0.941160   x 
            x  Ni          68         0.696771   0.812271   0.941927   x 
            x  Ni          69         0.695668   0.937587   0.815193   x 
            x  Ni          70         0.818634   0.938701   0.940660   x 
            x  Ni          71         0.942880   0.813008   0.940195   x 
            x  Ni          72         0.942012   0.938537   0.815163   x 
            x  Ni          73         0.567986   0.188347   0.192862   x 
            x  Ni          74         0.693225   0.062891   0.191023   x 
            x  Ni          75         0.692113   0.188641   0.065847   x 
            x  Ni          76         0.817516   0.188300   0.190124   x 
            x  Ni          77         0.942438   0.063627   0.189659   x 
            x  Ni          78         0.942015   0.188316   0.064750   x 
            x  Ni          79         0.567809   0.439169   0.191204   x 
            x  Ni          80         0.692766   0.313240   0.190916   x 
            x  Ni          81         0.693010   0.437371   0.065432   x 
            x  Ni          82         0.818349   0.437234   0.189741   x 
            x  Ni          83         0.942422   0.312706   0.189718   x 
            x  Ni          84         0.942701   0.437035   0.064774   x 
            x  Ni          85         0.568590   0.687955   0.189588   x 
            x  Ni          86         0.694893   0.562731   0.189457   x 
            x  Ni          87         0.695081   0.687101   0.065561   x 
            x  Ni          88         0.819488   0.687621   0.189557   x 
            x  Ni          89         0.943145   0.562151   0.189468   x 
            x  Ni          90         0.943478   0.687387   0.064888   x 
            x  Ni          91         0.568245   0.936142   0.190713   x 
            x  Ni          92         0.694406   0.812534   0.189925   x 
            x  Ni          93         0.694416   0.937909   0.066099   x 
            x  Ni          94         0.818738   0.938257   0.189990   x 
            x  Ni          95         0.943477   0.812996   0.189518   x 
            x  Ni          96         0.942813   0.938714   0.064895   x 
            x  Ni          97         0.069126   0.184100   0.434182   x 
            x  Ni          98         0.191012   0.060062   0.435369   x 
            x  Ni          99         0.063636   0.059107   0.309690   x 
            x  Ni         100         0.311408   0.189346   0.439051   x 
            x  Ni         101         0.442762   0.060687   0.439552   x 
            x  Ni         102         0.316815   0.313092   0.315144   x 
            x  Ni         103         0.319800   0.059647   0.313943   x 
            x  Ni         104         0.063600   0.315538   0.307110   x 
            x  Ni         105         0.063974   0.442303   0.438240   x 
            x  Ni         106         0.314540   0.438762   0.437325   x 
            x  Ni         107         0.444098   0.314590   0.437571   x 
            x  Ni         108         0.444143   0.442390   0.317451   x 
            x  Ni         109         0.189291   0.441999   0.312983   x 
            x  Ni         110         0.066202   0.688625   0.438046   x 
            x  Ni         111         0.316938   0.566722   0.316788   x 
            x  Ni         112         0.190325   0.690244   0.310772   x 
            x  Ni         113         0.314002   0.692531   0.439183   x 
            x  Ni         114         0.443122   0.442401   0.563158   x 
            x  Ni         115         0.444391   0.687937   0.316491   x 
            x  Ni         116         0.064948   0.934915   0.435410   x 
            x  Ni         117         0.316038   0.814973   0.312457   x 
            x  Ni         118         0.066663   0.812007   0.307788   x 
            x  Ni         119         0.314556   0.934514   0.437139   x 
            x  Ni         120         0.443339   0.811733   0.439787   x 
            x  Ni         121         0.444832   0.936403   0.315595   x 
            x  Ni         122         0.193351   0.814316   0.180630   x 
            x  Ni         123         0.064550   0.184412   0.689469   x 
            x  Ni         124         0.193121   0.060468   0.690993   x 
            x  Ni         125         0.062290   0.057413   0.563187   x 
            x  Ni         126         0.448585   0.058080   0.687985   x 
            x  Ni         127         0.443404   0.186698   0.561144   x 
            x  Ni         128         0.319373   0.060651   0.562669   x 
            x  Ni         129         0.072361   0.437390   0.690893   x 
            x  Ni         130         0.196100   0.304455   0.682701   x 
            x  Ni         131         0.191811   0.434850   0.561827   x 
            x  Ni         132         0.065773   0.311415   0.562623   x 
            x  Ni         133         0.317403   0.432263   0.688945   x 
            x  Ni         134         0.567434   0.187068   0.687134   x 
            x  Ni         135         0.446301   0.313362   0.686694   x 
            x  Ni         136         0.067043   0.815202   0.565227   x 
            x  Ni         137         0.071153   0.567799   0.568461   x 
            x  Ni         138         0.315588   0.693274   0.690712   x 
            x  Ni         139         0.442355   0.690589   0.566142   x 
            x  Ni         140         0.192153   0.693178   0.564762   x 
            x  Ni         141         0.194885   0.819875   0.692938   x 
            x  Ni         142         0.190549   0.938863   0.562502   x 
            x  Ni         143         0.318468   0.938804   0.691403   x 
            x  Ni         144         0.444105   0.933826   0.564505   x 
            x  Ni         145         0.064365   0.063333   0.816882   x 
            x  Ni         146         0.450463   0.060566   0.939942   x 
            x  Ni         147         0.323005   0.063463   0.814782   x 
            x  Ni         148         0.067359   0.433099   0.939365   x 
            x  Ni         149         0.064927   0.310000   0.814737   x 
            x  Ni         150         0.198938   0.302939   0.943581   x 
            x  Ni         151         0.445992   0.313175   0.940396   x 
            x  Ni         152         0.444593   0.439173   0.812689   x 
            x  Ni         153         0.322887   0.307183   0.813943   x 
            x  Ni         154         0.066031   0.685187   0.936850   x 
            x  Ni         155         0.193969   0.556474   0.935078   x 
            x  Ni         156         0.192568   0.686888   0.815313   x 
            x  Ni         157         0.318436   0.685460   0.938822   x 
            x  Ni         158         0.445152   0.563406   0.938060   x 
            x  Ni         159         0.443855   0.686301   0.814855   x 
            x  Ni         160         0.316149   0.559388   0.812482   x 
            x  Ni         161         0.065273   0.939668   0.938744   x 
            x  Ni         162         0.191822   0.812874   0.942302   x 
            x  Ni         163         0.068762   0.816105   0.817395   x 
            x  Ni         164         0.321036   0.940263   0.942117   x 
            x  Ni         165         0.446133   0.811386   0.938368   x 
            x  Ni         166         0.446099   0.936421   0.816427   x 
            x  Ni         167         0.318495   0.814291   0.818846   x 
            x  Ni         168         0.065335   0.185648   0.186584   x 
            x  Ni         169         0.194488   0.056666   0.186917   x 
            x  Ni         170         0.193918   0.071514   0.940004   x 
            x  Ni         171         0.063259   0.062667   0.060608   x 
            x  Ni         172         0.320148   0.186253   0.191230   x 
            x  Ni         173         0.447570   0.062006   0.191510   x 
            x  Ni         174         0.447337   0.187094   0.067252   x 
            x  Ni         175         0.323706   0.063407   0.065207   x 
            x  Ni         176         0.067522   0.565796   0.311154   x 
            x  Ni         177         0.193897   0.313417   0.190352   x 
            x  Ni         178         0.199529   0.434891   0.062364   x 
            x  Ni         179         0.066006   0.312464   0.064476   x 
            x  Ni         180         0.442244   0.186497   0.317449   x 
            x  Ni         181         0.443327   0.438880   0.067642   x 
            x  Ni         182         0.444775   0.314751   0.195926   x 
            x  Ni         183         0.068404   0.686191   0.182302   x 
            x  Ni         184         0.195243   0.566164   0.186805   x 
            x  Ni         185         0.067184   0.561459   0.059143   x 
            x  Ni         186         0.444320   0.564921   0.191866   x 
            x  Ni         187         0.444402   0.687896   0.064222   x 
            x  Ni         188         0.320998   0.563470   0.064382   x 
            x  Ni         189         0.066273   0.936219   0.181900   x 
            x  Ni         190         0.320496   0.811452   0.062888   x 
            x  Ni         191         0.446039   0.810797   0.190448   x 
            x  Ni         192         0.446988   0.936081   0.063899   x 
            xxxxxxxxxxxxxxxxxxxxxxxxxxxxxxxxxxxxxxxxxxxxxxxxxxxxxxxxxxxx
 
 
                         No user defined ionic velocities
 
                           -------------------------------
                                   Details of Species
                           -------------------------------
 
                               Mass of species in AMU
                                    Al   26.9815400
                                    Ni   58.6934000
 
                          Electric Quadrupole Moment (Barn)
                                    Al    0.1466000 Isotope 27
                                    Ni    0.1620000 Isotope 61
 
                          Files used for pseudopotentials:
                                    Al 3|2.2|2.2|1.4|4|5|5|30:31:32U2U2
                                    Ni 3|2.4|2.4|1.0|8|9|10|40:41:32U2U2(qc=5.5)
 
                           -------------------------------
                              k-Points For BZ Sampling
                           -------------------------------
                       MP grid size for SCF calculation is  1  1  1
                            with an offset of   0.000  0.000  0.000
                       Number of kpoints used =             1
 
                           -------------------------------
                               Symmetry and Constraints
                           -------------------------------
 
                      Maximum deviation from symmetry =  0.00000         ANG
 
                      Number of symmetry operations   =           1
                      Number of ionic constraints     =           3
                      Point group of crystal =     1: C1, 1, 1
                      Space group of crystal =     1: P1, P 1
 
             Set iprint > 1 for details on symmetry rotations/translations
 
                         Centre of mass is constrained
             Set iprint > 1 for details of linear ionic constraints
 
                         Number of cell constraints= 6
                         Cell constraints are:  0 0 0 0 0 0
 
                         External pressure/stress (GPa)
                          0.00000   0.00000   0.00000
                                    0.00000   0.00000
                                              0.00000
 
+---------------- MEMORY AND SCRATCH DISK ESTIMATES PER PROCESS --------------+
|                                                     Memory          Disk    |
| Baseline code, static data and system overhead      861.0 MB         0.0 MB |
| BLAS internal memory storage                          0.0 MB         0.0 MB |
| Model and support data                              349.7 MB         0.0 MB |
| Electronic energy minimisation requirements          97.8 MB         0.0 MB |
| Force calculation requirements                        2.3 MB         0.0 MB |
|                                               ----------------------------- |
| Approx. total storage required per process         1308.5 MB         0.0 MB |
|                                                                             |
| Requirements will fluctuate during execution and may exceed these estimates |
+-----------------------------------------------------------------------------+
Calculating approximate eigenstates for fixed initial Hamiltonian
Cut-off for approx. calculation is  550.359 eV
Resetting cut-off to  900.000 eV
Calculating total energy with cut-off of  900.000 eV.
------------------------------------------------------------------------ <-- SCF
SCF loop      Energy           Fermi           Energy gain       Timer   <-- SCF
                               energy          per atom          (sec)   <-- SCF
------------------------------------------------------------------------ <-- SCF
Initial  -2.71877646E+005  0.00000000E+000                      1477.56  <-- SCF
      1  -2.71333493E+005  3.13907891E+000  -2.13393070E+000    1543.21  <-- SCF
      2  -2.71490428E+005  3.15339604E+000   6.15429200E-001    1625.82  <-- SCF
      3  -2.72595203E+005  8.82157690E+000   4.33245102E+000    1702.76  <-- SCF
      4  -2.72648801E+005  8.82878914E+000   2.10189923E-001    1777.19  <-- SCF
      5  -2.71616514E+005  6.38067942E+000  -4.04818539E+000    1870.66  <-- SCF
      6  -2.71753440E+005  6.37444065E+000   5.36963492E-001    1942.05  <-- SCF
      7  -2.71459869E+005  4.87188215E+000  -1.15125805E+000    2030.52  <-- SCF
      8  -2.71397958E+005  4.44673328E+000  -2.42787593E-001    2105.11  <-- SCF
      9  -2.71389318E+005  4.40304365E+000  -3.38819353E-002    2179.82  <-- SCF
     10  -2.71392568E+005  4.45630531E+000   1.27439428E-002    2250.24  <-- SCF
     11  -2.72023007E+005  5.72090392E+000   2.47231271E+000    2332.26  <-- SCF
     12  -2.71567197E+005  4.75680846E+000  -1.78749313E+000    2432.27  <-- SCF
     13  -2.71457950E+005  4.29001503E+000  -4.28416493E-001    2511.92  <-- SCF
     14  -2.71415929E+005  4.20616541E+000  -1.64788976E-001    2588.68  <-- SCF
     15  -2.71405641E+005  4.31288265E+000  -4.03452481E-002    2657.81  <-- SCF
     16  -2.71398132E+005  4.36739591E+000  -2.94478949E-002    2730.30  <-- SCF
     17  -2.71393502E+005  4.37031928E+000  -1.81579097E-002    2803.28  <-- SCF
     18  -2.71390179E+005  4.35914552E+000  -1.30294980E-002    2871.41  <-- SCF
     19  -2.71388371E+005  4.34951212E+000  -7.09115707E-003    2942.56  <-- SCF
     20  -2.71387179E+005  4.34848443E+000  -4.67352500E-003    3009.30  <-- SCF
     21  -2.71386182E+005  4.36374330E+000  -3.91004903E-003    3078.17  <-- SCF
     22  -2.71385786E+005  4.38159030E+000  -1.55538659E-003    3145.89  <-- SCF
     23  -2.71385615E+005  4.39376089E+000  -6.69163653E-004    3219.53  <-- SCF
     24  -2.71385521E+005  4.38746974E+000  -3.68875049E-004    3293.75  <-- SCF
     25  -2.71385492E+005  4.37582967E+000  -1.14296935E-004    3361.46  <-- SCF
     26  -2.71385437E+005  4.36918051E+000  -2.16083112E-004    3431.59  <-- SCF
     27  -2.71385432E+005  4.37106214E+000  -2.00097378E-005    3508.58  <-- SCF
     28  -2.71385424E+005  4.37506359E+000  -2.92171644E-005    3577.71  <-- SCF
     29  -2.71385423E+005  4.37652264E+000  -3.04890489E-006    3644.80  <-- SCF
     30  -2.71385426E+005  4.37579721E+000   9.31308882E-006    3724.49  <-- SCF
     31  -2.71385419E+005  4.37507015E+000  -2.54212956E-005    3798.84  <-- SCF
     32  -2.71385414E+005  4.37462580E+000  -1.90436069E-005    3874.36  <-- SCF
     33  -2.71385414E+005  4.37478486E+000   5.40668841E-008    3922.05  <-- SCF
     34  -2.71385415E+005  4.37476911E+000   7.21741328E-007    3973.31  <-- SCF
------------------------------------------------------------------------ <-- SCF
 
Integrated Spin Density     =    0.746096E-01 hbar/2
Integrated |Spin Density|   =    0.146037     hbar/2
 
Final energy, E             =  -271380.8539879     eV
Final free energy (E-TS)    =  -271385.4145142     eV
(energies not corrected for finite basis set)
 
NB est. 0K energy (E-0.5TS)      =  -271383.1342510     eV
 

Writing analysis data to castep.castep_bin

Writing model to castep.check
 
+---------------- MEMORY AND SCRATCH DISK ESTIMATES PER PROCESS --------------+
|                                                     Memory          Disk    |
| Model and support data                              360.0 MB         0.0 MB |
| Electronic energy minimisation requirements          97.8 MB         0.0 MB |
| Geometry minimisation requirements                  126.4 MB         0.0 MB |
|                                               ----------------------------- |
| Approx. total storage required per process          584.2 MB         0.0 MB |
|                                                                             |
| Requirements will fluctuate during execution and may exceed these estimates |
+-----------------------------------------------------------------------------+
 
 
 ************************************** Forces **************************************
 *                                                                                  *
 *                           Cartesian components (eV/A)                            *
 * -------------------------------------------------------------------------------- *
 *                         x                    y                    z              *
 *                                                                                  *
 * Al              1     -0.11615              0.00352             -0.01620         *
 * Al              2      0.03093             -0.03399             -0.00683         *
 * Al              3     -0.04578             -0.01873             -0.01225         *
 * Al              4      0.05759              0.00035              0.00988         *
 * Al              5     -0.08869             -0.01672             -0.11023         *
 * Al              6      0.09643              0.02012              0.00158         *
 * Al              7     -0.15924              0.04299             -0.02578         *
 * Al              8      0.06122              0.01511             -0.02469         *
 * Al              9     -0.04248              0.00861              0.00189         *
 * Al             10      0.05507              0.01999             -0.02565         *
 * Al             11     -0.11821              0.01572             -0.01246         *
 * Al             12      0.09409             -0.00247             -0.01658         *
 * Al             13      0.09432             -0.02216             -0.02253         *
 * Al             14      0.04659             -0.03658             -0.03377         *
 * Al             15     -0.02465             -0.00698             -0.12710         *
 * Al             16      0.07711              0.01633             -0.02528         *
 * Al             17     -0.17578             -0.01746              0.00368         *
 * Al             18      0.05297              0.01847              0.00032         *
 * Al             19     -0.09336             -0.02858              0.02979         *
 * Al             20      0.06997              0.01667             -0.01457         *
 * Al             21     -0.02132              0.00019              0.10864         *
 * Al             22      0.11058             -0.01039              0.00168         *
 * Al             23      0.02551              0.02161              0.14092         *
 * Al             24      0.02663             -0.01312             -0.01709         *
 * Al             25     -0.11494             -0.05952             -0.00878         *
 * Al             26      0.00013             -0.01790              0.00944         *
 * Al             27     -0.11967              0.01265              0.00627         *
 * Al             28      0.06836              0.02814             -0.00843         *
 * Al             29     -0.14530              0.04709              0.01256         *
 * Al             30      0.04743             -0.00232              0.01177         *
 * Al             31     -0.17827              0.01630              0.01546         *
 * Al             32      0.09125             -0.03137              0.03057         *
 * Al             33      0.13525              0.08849              0.15518         *
 * Al             34      0.29038              0.19741              0.29231         *
 * Al             35     -0.03659             -0.00578             -0.07669         *
 * Al             36      0.15505              0.06070              0.19423         *
 * Al             37     -0.04484             -0.29067             -0.06203         *
 * Al             38      0.05804              0.06397              0.18277         *
 * Al             39     -0.54973             -0.29943              0.51740         *
 * Al             40      0.13344             -0.19456             -0.03472         *
 * Al             41     -0.79229             -0.03333              0.64916         *
 * Al             42      0.20109              0.28479             -0.06222         *
 * Al             43      0.00223             -0.10281             -0.12982         *
 * Al             44      0.15241             -0.17042             -0.21311         *
 * Al             45     -0.04228              0.01694              0.17756         *
 * Al             46     -0.14312              0.08737             -0.13121         *
 * Al             47     -0.65388             -0.08712              0.01968         *
 * Al             48     -0.21933             -0.18772             -0.02596         *
 * Al             49     -0.01854              0.16210              0.12123         *
 * Al             50     -0.27306              0.02455             -0.03210         *
 * Al             51     -0.52238             -0.10006             -0.65922         *
 * Al             52     -0.15569             -0.12799              0.03499         *
 * Al             53     -0.62528             -0.03112             -0.64849         *
 * Al             54      0.20256             -0.09226             -0.29683         *
 * Al             55      0.03350              0.46021              0.02403         *
 * Al             56      0.29024             -0.07874              0.01349         *
 * Al             57     -0.27141             -0.18900             -0.09966         *
 * Al             58     -0.08758              0.01911              0.13708         *
 * Al             59     -0.04026             -0.07010             -0.11667         *
 * Al             60     -0.09772             -0.02413             -0.02244         *
 * Al             61      0.00979              0.03518              0.00392         *
 * Al             62     -0.16228             -0.01537              0.25851         *
 * Al             63     -0.16724              0.17978             -0.10125         *
 * Ni              1      0.01654              0.00552             -0.07155         *
 * Ni              2      0.00623             -0.01304              0.01188         *
 * Ni              3      0.04008              0.01395             -0.00847         *
 * Ni              4      0.09109             -0.01495             -0.01000         *
 * Ni              5      0.10881             -0.07138             -0.08918         *
 * Ni              6      0.07412              0.02766             -0.09718         *
 * Ni              7      0.10709              0.02080              0.12480         *
 * Ni              8      0.08698             -0.02701             -0.00348         *
 * Ni              9     -0.02345              0.01397              0.01028         *
 * Ni             10      0.02206              0.00852              0.03150         *
 * Ni             11      0.30086             -0.04724             -0.07831         *
 * Ni             12      0.13066              0.15688             -0.06697         *
 * Ni             13      0.10052             -0.04639              0.18447         *
 * Ni             14     -0.03675              0.00543             -0.00435         *
 * Ni             15     -0.06892             -0.01956              0.02261         *
 * Ni             16     -0.00970              0.01780             -0.01671         *
 * Ni             17      0.12653              0.16948              0.03213         *
 * Ni             18      0.12566             -0.02228             -0.14160         *
 * Ni             19      0.01309             -0.02879              0.10458         *
 * Ni             20      0.06262              0.01974              0.00150         *
 * Ni             21     -0.00297             -0.00465             -0.00850         *
 * Ni             22      0.02489              0.00067             -0.01690         *
 * Ni             23      0.19230             -0.02927             -0.04341         *
 * Ni             24      0.02275             -0.16920             -0.15923         *
 * Ni             25      0.14480              0.03903              0.00752         *
 * Ni             26      0.10845              0.04162              0.00025         *
 * Ni             27      0.02054             -0.00403             -0.00354         *
 * Ni             28      0.02150              0.02071             -0.05154         *
 * Ni             29      0.07404              0.04731              0.01800         *
 * Ni             30      0.17837             -0.08669             -0.11948         *
 * Ni             31      0.17862              0.12971             -0.13827         *
 * Ni             32      0.07036             -0.04504              0.01595         *
 * Ni             33     -0.03586              0.04572             -0.00343         *
 * Ni             34     -0.01444             -0.06070             -0.02660         *
 * Ni             35      0.22321              0.00565             -0.00717         *
 * Ni             36      0.25986              0.11449              0.06862         *
 * Ni             37      0.20004              0.03695             -0.07472         *
 * Ni             38      0.04771             -0.01623              0.01360         *
 * Ni             39     -0.09965             -0.02095              0.01476         *
 * Ni             40     -0.00411             -0.03311             -0.02348         *
 * Ni             41      0.43261              0.01280             -0.04883         *
 * Ni             42      0.25151              0.06601             -0.04258         *
 * Ni             43      0.10586             -0.14761             -0.00227         *
 * Ni             44      0.09623              0.00615             -0.00528         *
 * Ni             45     -0.03140             -0.01674              0.02180         *
 * Ni             46      0.01962              0.05973             -0.00992         *
 * Ni             47     -0.04346              0.10038              0.09804         *
 * Ni             48     -0.07189             -0.17796             -0.10389         *
 * Ni             49      0.14521             -0.05677              0.07175         *
 * Ni             50      0.03198             -0.02441             -0.00347         *
 * Ni             51      0.04930              0.00309              0.00379         *
 * Ni             52      0.07100             -0.01081              0.00574         *
 * Ni             53     -0.08130             -0.22810             -0.06768         *
 * Ni             54     -0.12474             -0.03854             -0.20033         *
 * Ni             55      0.12411              0.06098             -0.12030         *
 * Ni             56      0.03547              0.02142             -0.01016         *
 * Ni             57     -0.04669              0.01202             -0.01187         *
 * Ni             58     -0.01355              0.02559             -0.03884         *
 * Ni             59     -0.02500              0.21963             -0.01553         *
 * Ni             60      0.15440             -0.10394             -0.05898         *
 * Ni             61      0.09989              0.05539             -0.14818         *
 * Ni             62      0.01454             -0.01242              0.01560         *
 * Ni             63     -0.09727              0.00115             -0.03269         *
 * Ni             64     -0.02588              0.01228              0.00632         *
 * Ni             65      0.08304             -0.10732              0.01945         *
 * Ni             66      0.18603             -0.00190             -0.06280         *
 * Ni             67      0.09337             -0.06715             -0.11890         *
 * Ni             68      0.00700              0.00386             -0.00404         *
 * Ni             69     -0.03843             -0.02267             -0.02133         *
 * Ni             70      0.00165             -0.03362              0.00177         *
 * Ni             71     -0.20314              0.00294             -0.50236         *
 * Ni             72     -0.06579             -0.05751              0.13323         *
 * Ni             73      0.11404             -0.00285              0.04358         *
 * Ni             74      0.03090             -0.00040              0.00044         *
 * Ni             75      0.05334             -0.00831              0.00258         *
 * Ni             76      0.00010             -0.02586              0.04660         *
 * Ni             77      0.04624             -0.09052             -0.14603         *
 * Ni             78     -0.16261              0.02348              0.18159         *
 * Ni             79      0.13004             -0.05367              0.10816         *
 * Ni             80      0.03455              0.01953              0.01101         *
 * Ni             81      0.00267              0.02255             -0.00360         *
 * Ni             82      0.00292             -0.00831              0.00524         *
 * Ni             83     -0.00164             -0.02919             -0.18100         *
 * Ni             84     -0.00232             -0.00235             -0.16594         *
 * Ni             85      0.14606             -0.00565              0.03891         *
 * Ni             86      0.01242              0.00381             -0.01462         *
 * Ni             87     -0.01528             -0.00725             -0.00564         *
 * Ni             88     -0.04856              0.02889              0.02754         *
 * Ni             89      0.14533              0.13455             -0.13581         *
 * Ni             90     -0.21706             -0.37948             -0.15694         *
 * Ni             91      0.13389              0.06171             -0.01129         *
 * Ni             92      0.01720             -0.03230              0.01107         *
 * Ni             93      0.00242             -0.00470             -0.02704         *
 * Ni             94      0.01511              0.01171              0.01193         *
 * Ni             95     -0.10673             -0.10590              0.08309         *
 * Ni             96     -0.34618              0.22443             -0.12997         *
 * Ni             97     -0.14864              0.37635              0.13020         *
 * Ni             98      0.03790             -0.14142              0.17483         *
 * Ni             99      0.08059              0.31304              0.18648         *
 * Ni            100      0.07438              0.05326              0.21456         *
 * Ni            101     -0.22882              0.01976             -0.02787         *
 * Ni            102      0.01334             -0.16206              0.06895         *
 * Ni            103      0.09543             -0.02143              0.01931         *
 * Ni            104      0.20497             -0.28325              0.49360         *
 * Ni            105      0.08193             -0.18795              0.10955         *
 * Ni            106      0.26399             -0.26808             -0.05238         *
 * Ni            107     -0.13935             -0.00979             -0.16335         *
 * Ni            108     -0.11398             -0.02963              0.07335         *
 * Ni            109      0.12589             -0.00378              0.07562         *
 * Ni            110     -0.13461             -0.16768              0.16489         *
 * Ni            111     -0.23242              0.01306             -0.02641         *
 * Ni            112      0.05616             -0.14752             -0.01347         *
 * Ni            113      0.27537              0.21652             -0.06380         *
 * Ni            114      0.11516              0.08494             -0.00813         *
 * Ni            115     -0.10820              0.01984              0.15170         *
 * Ni            116      0.13375              0.24392              0.19006         *
 * Ni            117      0.04957              0.11384              0.05601         *
 * Ni            118      0.13262              0.01125              0.13553         *
 * Ni            119      0.15322              0.12586              0.03096         *
 * Ni            120     -0.07373             -0.01476             -0.25935         *
 * Ni            121     -0.10439             -0.08528              0.24506         *
 * Ni            122     -0.17594             -0.05124              0.15559         *
 * Ni            123     -0.01146              0.18874             -0.14569         *
 * Ni            124      0.09492              0.06088             -0.04427         *
 * Ni            125      0.22773              0.31144             -0.07396         *
 * Ni            126     -0.23610             -0.10653              0.09527         *
 * Ni            127     -0.11354             -0.05391             -0.10464         *
 * Ni            128     -0.19809             -0.05797             -0.02552         *
 * Ni            129     -0.05351              0.11546             -0.15891         *
 * Ni            130     -0.00924             -0.18626             -0.16370         *
 * Ni            131     -0.13516             -0.12596              0.09614         *
 * Ni            132      0.10429             -0.08433              0.05247         *
 * Ni            133      0.13703             -0.05784              0.06900         *
 * Ni            134      0.12730              0.01405             -0.07887         *
 * Ni            135     -0.22484              0.08730              0.28321         *
 * Ni            136     -0.24012              0.08429             -0.13166         *
 * Ni            137     -0.25626             -0.33086             -0.01770         *
 * Ni            138      0.08040              0.15645              0.07901         *
 * Ni            139     -0.05204              0.03705             -0.06820         *
 * Ni            140      0.08977              0.01466              0.01757         *
 * Ni            141     -0.10512             -0.03713              0.17589         *
 * Ni            142      0.17633              0.01831             -0.11337         *
 * Ni            143      0.31268              0.15618             -0.24867         *
 * Ni            144     -0.08184             -0.01526              0.05497         *
 * Ni            145      0.18049              0.04650             -0.11821         *
 * Ni            146     -0.32686             -0.10489              0.10000         *
 * Ni            147      0.00858             -0.02610              0.07963         *
 * Ni            148      0.19586              0.09786             -0.00565         *
 * Ni            149      0.13771             -0.04841             -0.16010         *
 * Ni            150     -0.00192             -0.11117              0.24512         *
 * Ni            151     -0.33068             -0.04204             -0.00688         *
 * Ni            152     -0.03341             -0.03892             -0.13158         *
 * Ni            153     -0.01479              0.07215             -0.04802         *
 * Ni            154      0.13573              0.24324              0.07056         *
 * Ni            155      0.00440             -0.10560              0.04579         *
 * Ni            156     -0.01805             -0.09497             -0.24710         *
 * Ni            157      0.24591              0.06428             -0.20697         *
 * Ni            158     -0.18978              0.10679              0.22673         *
 * Ni            159     -0.17627             -0.00609              0.09040         *
 * Ni            160     -0.21456              0.22288              0.19060         *
 * Ni            161     -0.04313              0.07744              0.10305         *
 * Ni            162      0.00628             -0.12928              0.08056         *
 * Ni            163     -0.01955              0.07030              0.24982         *
 * Ni            164      0.30481             -0.12235             -0.06551         *
 * Ni            165     -0.31707              0.03939              0.15589         *
 * Ni            166     -0.12314             -0.00858             -0.01223         *
 * Ni            167     -0.08076             -0.11557              0.18882         *
 * Ni            168     -0.18520              0.15430              0.25376         *
 * Ni            169     -0.02647             -0.13555             -0.04842         *
 * Ni            170      0.04258              0.30142             -0.03931         *
 * Ni            171      0.27623              0.11551              0.31591         *
 * Ni            172      0.26726             -0.15326              0.02566         *
 * Ni            173     -0.29368              0.27321             -0.07627         *
 * Ni            174     -0.06032              0.00403              0.08158         *
 * Ni            175      0.01875             -0.05341              0.00456         *
 * Ni            176     -0.03435             -0.06226              0.18250         *
 * Ni            177      0.07004             -0.01579             -0.18472         *
 * Ni            178      0.06769              0.08184             -0.23706         *
 * Ni            179      0.31189             -0.10456              0.03038         *
 * Ni            180     -0.04915              0.09237             -0.06239         *
 * Ni            181     -0.10458             -0.08034              0.00044         *
 * Ni            182     -0.16278             -0.16964             -0.11018         *
 * Ni            183      0.02042              0.12534              0.33135         *
 * Ni            184     -0.14759              0.15766              0.00240         *
 * Ni            185      0.11223             -0.04530              0.00306         *
 * Ni            186     -0.01554             -0.10529             -0.13379         *
 * Ni            187     -0.06896             -0.09938             -0.18706         *
 * Ni            188      0.05620              0.18896             -0.07576         *
 * Ni            189     -0.07001              0.11776              0.29838         *
 * Ni            190      0.12143             -0.01437             -0.21483         *
 * Ni            191     -0.05135              0.02611             -0.09786         *
 * Ni            192      0.07964              0.03073             -0.18175         *
 *                                                                                  *
 ************************************************************************************
 LBFGS: finished iteration     0 with enthalpy= -2.71385415E+005 eV
  
 +-----------+-----------------+-----------------+------------+-----+ <-- LBFGS
 | Parameter |      value      |    tolerance    |    units   | OK? | <-- LBFGS
 +-----------+-----------------+-----------------+------------+-----+ <-- LBFGS
 |  dE/ion   |   0.000000E+000 |   2.000000E-005 |         eV | No  | <-- LBFGS
 |  |F|max   |   1.024813E+000 |   5.000000E-002 |       eV/A | No  | <-- LBFGS
 |  |dR|max  |   0.000000E+000 |   1.000000E-003 |          A | No  | <-- LBFGS
 +-----------+-----------------+-----------------+------------+-----+ <-- LBFGS
  

================================================================================
 Starting LBFGS iteration          1 ...
================================================================================
  
 +------------+-------------+-------------+-----------------+ <-- min LBFGS
 |    Step    |   lambda    |   F.delta'  |    enthalpy     | <-- min LBFGS
 +------------+-------------+-------------+-----------------+ <-- min LBFGS
 |  previous  |    0.000000 |    2.054164 |  -271385.414514 | <-- min LBFGS
 +------------+-------------+-------------+-----------------+ <-- min LBFGS
  

--------------------------------------------------------------------------------
 LBFGS: starting iteration         1 with trial guess (lambda=  1.000000)
--------------------------------------------------------------------------------
 
                           -------------------------------
                                     Cell Contents
                           -------------------------------
 
            xxxxxxxxxxxxxxxxxxxxxxxxxxxxxxxxxxxxxxxxxxxxxxxxxxxxxxxxxxxxxxxxx
            x  Element         Atom        Fractional coordinates of atoms  x
            x                 Number           u          v          w      x
            x---------------------------------------------------------------x
            x  Al                1         0.570586   0.062197   0.316189   x
            x  Al                2         0.818108   0.063201   0.314869   x
            x  Al                3         0.569927   0.314052   0.316810   x
            x  Al                4         0.817849   0.312948   0.315103   x
            x  Al                5         0.573391   0.564285   0.313102   x
            x  Al                6         0.819341   0.562498   0.314235   x
            x  Al                7         0.571302   0.811526   0.315911   x
            x  Al                8         0.819425   0.812864   0.314187   x
            x  Al                9         0.569901   0.060674   0.563070   x
            x  Al               10         0.817718   0.063071   0.564829   x
            x  Al               11         0.568920   0.314580   0.562628   x
            x  Al               12         0.817404   0.312958   0.564932   x
            x  Al               13         0.576313   0.565016   0.565187   x
            x  Al               14         0.819273   0.562570   0.565070   x
            x  Al               15         0.573851   0.811248   0.560913   x
            x  Al               16         0.819424   0.812738   0.564773   x
            x  Al               17         0.572628   0.060806   0.813992   x
            x  Al               18         0.816833   0.063737   0.814718   x
            x  Al               19         0.569560   0.314098   0.813545   x
            x  Al               20         0.816423   0.312634   0.814673   x
            x  Al               21         0.572992   0.563427   0.816692   x
            x  Al               22         0.818867   0.561978   0.815582   x
            x  Al               23         0.576730   0.811372   0.820255   x
            x  Al               24         0.819099   0.812695   0.815454   x
            x  Al               25         0.571719   0.062631   0.066564   x
            x  Al               26         0.817295   0.063807   0.065353   x
            x  Al               27         0.568915   0.313645   0.067130   x
            x  Al               28         0.817156   0.312641   0.065064   x
            x  Al               29         0.570088   0.562618   0.065624   x
            x  Al               30         0.818907   0.561870   0.065084   x
            x  Al               31         0.571805   0.811756   0.064638   x
            x  Al               32         0.819409   0.812930   0.065619   x
            x  Al               33         0.328769   0.936001   0.186665   x
            x  Al               34         0.056560   0.810851   0.059261   x
            x  Al               35         0.192861   0.943333   0.057106   x
            x  Al               36         0.321772   0.688917   0.192069   x
            x  Al               37         0.193284   0.683315   0.056410   x
            x  Al               38         0.318105   0.444811   0.196346   x
            x  Al               39         0.074302   0.442978   0.181476   x
            x  Al               40         0.198004   0.942521   0.824569   x
            x  Al               41         0.069397   0.559579   0.814511   x
            x  Al               42         0.325461   0.438794   0.939639   x
            x  Al               43         0.194120   0.421532   0.813177   x
            x  Al               44         0.331168   0.182412   0.937170   x
            x  Al               45         0.327702   0.310297   0.072261   x
            x  Al               46         0.190471   0.186694   0.808813   x
            x  Al               47         0.063101   0.189931   0.940685   x
            x  Al               48         0.317589   0.816711   0.563899   x
            x  Al               49         0.440736   0.812429   0.696498   x
            x  Al               50         0.185953   0.809473   0.436874   x
            x  Al               51         0.067585   0.939316   0.693226   x
            x  Al               52         0.429294   0.565056   0.684149   x
            x  Al               53         0.072402   0.699034   0.692888   x
            x  Al               54         0.208166   0.562254   0.675534   x
            x  Al               55         0.325578   0.316434   0.560081   x
            x  Al               56         0.329949   0.180545   0.689604   x
            x  Al               57         0.184613   0.177025   0.563211   x
            x  Al               58         0.186997   0.940116   0.308854   x
            x  Al               59         0.429180   0.566856   0.446195   x
            x  Al               60         0.193949   0.565609   0.442733   x
            x  Al               61         0.190977   0.180155   0.306726   x
            x  Al               62         0.192162   0.182008   0.074267   x
            x  Al               63         0.184156   0.319200   0.432513   x
            x  Ni                1         0.568024   0.187123   0.439585   x
            x  Ni                2         0.694191   0.062453   0.439807   x
            x  Ni                3         0.693653   0.188241   0.315723   x
            x  Ni                4         0.817689   0.188387   0.440089   x
            x  Ni                5         0.942115   0.063385   0.439806   x
            x  Ni                6         0.942232   0.188270   0.314775   x
            x  Ni                7         0.567215   0.443145   0.439342   x
            x  Ni                8         0.692578   0.313998   0.440058   x
            x  Ni                9         0.694343   0.438130   0.315066   x
            x  Ni               10         0.818744   0.437590   0.439851   x
            x  Ni               11         0.942419   0.312823   0.439870   x
            x  Ni               12         0.942792   0.437387   0.314539   x
            x  Ni               13         0.567845   0.684887   0.439243   x
            x  Ni               14         0.696115   0.563373   0.439202   x
            x  Ni               15         0.695509   0.687952   0.314279   x
            x  Ni               16         0.820022   0.687730   0.439310   x
            x  Ni               17         0.942993   0.562326   0.439617   x
            x  Ni               18         0.943402   0.687475   0.314245   x
            x  Ni               19         0.568942   0.936946   0.438998   x
            x  Ni               20         0.695458   0.811820   0.438750   x
            x  Ni               21         0.694307   0.937324   0.314701   x
            x  Ni               22         0.818805   0.937788   0.439464   x
            x  Ni               23         0.943117   0.812935   0.439520   x
            x  Ni               24         0.942835   0.938352   0.314526   x
            x  Ni               25         0.449734   0.185896   0.813184   x
            x  Ni               26         0.692523   0.061951   0.688650   x
            x  Ni               27         0.692511   0.188011   0.564247   x
            x  Ni               28         0.816619   0.188280   0.689608   x
            x  Ni               29         0.941706   0.063503   0.690099   x
            x  Ni               30         0.941882   0.188204   0.565027   x
            x  Ni               31         0.566296   0.442121   0.689253   x
            x  Ni               32         0.691206   0.313731   0.688768   x
            x  Ni               33         0.694047   0.438183   0.564729   x
            x  Ni               34         0.817984   0.437407   0.690099   x
            x  Ni               35         0.941958   0.312735   0.690136   x
            x  Ni               36         0.942605   0.437461   0.565078   x
            x  Ni               37         0.566996   0.687738   0.690973   x
            x  Ni               38         0.695004   0.563573   0.690648   x
            x  Ni               39         0.696395   0.688211   0.564809   x
            x  Ni               40         0.819815   0.687646   0.690374   x
            x  Ni               41         0.942902   0.562199   0.690333   x
            x  Ni               42         0.943177   0.687518   0.564921   x
            x  Ni               43         0.569154   0.933201   0.689794   x
            x  Ni               44         0.694573   0.811487   0.690094   x
            x  Ni               45         0.694756   0.936899   0.564326   x
            x  Ni               46         0.818404   0.937789   0.689782   x
            x  Ni               47         0.943035   0.812968   0.690281   x
            x  Ni               48         0.942400   0.938226   0.564857   x
            x  Ni               49         0.568216   0.188232   0.940071   x
            x  Ni               50         0.693321   0.063415   0.940454   x
            x  Ni               51         0.691528   0.188256   0.813989   x
            x  Ni               52         0.816725   0.188496   0.939892   x
            x  Ni               53         0.941913   0.063822   0.939903   x
            x  Ni               54         0.941549   0.188325   0.814916   x
            x  Ni               55         0.566968   0.438117   0.940676   x
            x  Ni               56         0.691692   0.313059   0.940192   x
            x  Ni               57         0.693171   0.437691   0.814927   x
            x  Ni               58         0.817814   0.436899   0.940178   x
            x  Ni               59         0.941987   0.312652   0.939834   x
            x  Ni               60         0.942328   0.437079   0.815202   x
            x  Ni               61         0.569664   0.686587   0.941427   x
            x  Ni               62         0.694514   0.561941   0.941063   x
            x  Ni               63         0.696162   0.687004   0.815909   x
            x  Ni               64         0.819574   0.687001   0.940787   x
            x  Ni               65         0.943043   0.561910   0.940168   x
            x  Ni               66         0.943140   0.687424   0.815458   x
            x  Ni               67         0.570966   0.936899   0.941144   x
            x  Ni               68         0.696772   0.812271   0.941926   x
            x  Ni               69         0.695663   0.937584   0.815190   x
            x  Ni               70         0.818634   0.938696   0.940661   x
            x  Ni               71         0.942853   0.813009   0.940128   x
            x  Ni               72         0.942004   0.938530   0.815180   x
            x  Ni               73         0.568001   0.188346   0.192867   x
            x  Ni               74         0.693229   0.062891   0.191023   x
            x  Ni               75         0.692121   0.188640   0.065848   x
            x  Ni               76         0.817516   0.188296   0.190131   x
            x  Ni               77         0.942444   0.063615   0.189639   x
            x  Ni               78         0.941993   0.188319   0.064774   x
            x  Ni               79         0.567826   0.439162   0.191219   x
            x  Ni               80         0.692770   0.313243   0.190918   x
            x  Ni               81         0.693011   0.437374   0.065431   x
            x  Ni               82         0.818349   0.437233   0.189742   x
            x  Ni               83         0.942422   0.312702   0.189694   x
            x  Ni               84         0.942701   0.437034   0.064752   x
            x  Ni               85         0.568609   0.687954   0.189593   x
            x  Ni               86         0.694895   0.562732   0.189455   x
            x  Ni               87         0.695079   0.687100   0.065560   x
[...]
            Ni 97  -- Ni 125                 0.09        -0.00          2.58773
             Al 61 -- Ni 102                 0.16        -0.00          2.58816
             Al 36 -- Ni 187                 0.19        -0.00          2.58830
             Al 59 -- Ni 108                 0.14         0.00          2.58848
             Al 52 -- Ni 152                 0.15         0.00          2.58853
            Ni 60  -- Ni 65                  0.01         0.00          2.58869
            Ni 85  -- Ni 115                 0.04         0.00          2.58875
            Ni 47  -- Ni 48                 -0.00        -0.00          2.58876
            Ni 106 -- Ni 131                 0.05        -0.00          2.58879
            Ni 103 -- Ni 169                -0.02        -0.00          2.58906
            Ni 49  -- Ni 151                 0.08         0.00          2.58910
             Al 33 -- Ni 169                 0.18         0.00          2.58919
             Al 15 -- Ni 37                  0.20        -0.00          2.58928
             Al 17 -- Ni 43                  0.19         0.00          2.58935
            Ni 1   -- Ni 101                 0.04         0.00          2.58936
             Al 52 -- Ni 159                 0.15         0.00          2.58936
             Al 15 -- Ni 44                  0.20        -0.00          2.58948
             Al 53 -- Ni 137                 0.19         0.00          2.58950
            Ni 155 -- Ni 156                 0.06         0.00          2.58951
             Al 9  -- Ni 127                 0.19         0.00          2.58994
             Al 51 -- Ni 142                 0.18         0.00          2.59018
            Ni 159 -- Ni 167                 0.10         0.00          2.59020
            Ni 110 -- Ni 136                 0.07        -0.00          2.59054
            Ni 105 -- Ni 132                 0.05        -0.00          2.59084
            Ni 25  -- Ni 147                 0.08         0.00          2.59085
             Al 46 -- Ni 153                 0.14         0.00          2.59098
             Al 40 -- Ni 163                 0.17        -0.00          2.59104
            Ni 13  -- Ni 120                 0.04         0.00          2.59115
            Ni 67  -- Ni 165                 0.03         0.00          2.59123
             Al 38 -- Ni 102                 0.17         0.00          2.59125
             Al 40 -- Ni 124                 0.19         0.00          2.59149
             Al 19 -- Ni 151                 0.20         0.00          2.59149
            Ni 41  -- Ni 66                 -0.03         0.00          2.59159
            Ni 29  -- Ni 48                  0.02        -0.00          2.59160
            Ni 90  -- Ni 95                  0.01         0.00          2.59161
            Ni 41  -- Ni 42                  0.04         0.00          2.59189
             Al 19 -- Ni 49                  0.20        -0.00          2.59201
            Ni 34  -- Ni 41                  0.07         0.00          2.59203
             Al 36 -- Ni 188                 0.19        -0.00          2.59204
            Ni 183 -- Ni 185                 0.07        -0.00          2.59205
             Al 61 -- Ni 97                  0.17         0.00          2.59213
            Ni 31  -- Ni 32                  0.06         0.00          2.59225
            Ni 151 -- Ni 174                -0.05         0.00          2.59233
             Al 51 -- Ni 124                 0.20         0.00          2.59244
            Ni 55  -- Ni 181                 0.07         0.00          2.59268
            Ni 116 -- Ni 118                 0.02        -0.00          2.59281
             Al 40 -- Ni 145                 0.17         0.00          2.59285
            Ni 121 -- Ni 191                 0.00         0.00          2.59295
             Al 36 -- Ni 190                 0.17         0.00          2.59382
            Ni 35  -- Ni 129                 0.09         0.00          2.59388
             Al 58 -- Ni 117                 0.15        -0.00          2.59414
            Ni 104 -- Ni 109                 0.02        -0.00          2.59467
             Al 50 -- Ni 142                 0.15        -0.00          2.59467
            Ni 37  -- Ni 38                  0.07         0.00          2.59487
            Ni 169 -- Ni 171                -0.00        -0.00          2.59510
             Al 23 -- Ni 37                  0.19         0.00          2.59519
            Ni 159 -- Ni 160                 0.09         0.00          2.59523
            Ni 155 -- Ni 157                 0.08         0.00          2.59551
             Al 60 -- Ni 109                 0.15         0.00          2.59558
            Ni 71  -- Ni 96                  0.01         0.00          2.59576
             Al 38 -- Ni 181                 0.19         0.00          2.59578
            Ni 113 -- Ni 139                 0.09         0.00          2.59592
             Al 53 -- Ni 163                 0.16        -0.00          2.59629
             Al 48 -- Ni 141                 0.17        -0.00          2.59630
            Ni 117 -- Ni 122                 0.03         0.00          2.59641
            Ni 123 -- Ni 124                 0.01         0.00          2.59684
            Ni 178 -- Ni 185                 0.08        -0.00          2.59724
            Ni 68  -- Ni 69                  0.02         0.00          2.59724
            Ni 150 -- Ni 178                 0.08         0.00          2.59734
             Al 22 -- Ni 62                  0.19        -0.00          2.59784
             Al 38 -- Ni 188                 0.17        -0.00          2.59785
            Ni 138 -- Ni 160                 0.06         0.00          2.59807
            Ni 142 -- Ni 143                 0.05        -0.00          2.59810
            Ni 25  -- Ni 151                -0.01         0.00          2.59814
            Ni 129 -- Ni 132                 0.12        -0.00          2.59844
            Ni 25  -- Ni 146                -0.01         0.00          2.59850
             Al 45 -- Ni 150                 0.16         0.00          2.59859
             Al 9  -- Ni 144                 0.19         0.00          2.59882
            Ni 37  -- Ni 39                  0.01         0.00          2.59889
             Al 41 -- Ni 129                 0.23         0.00          2.59898
             Al 34 -- Ni 162                 0.16        -0.00          2.59912
            Ni 152 -- Ni 160                 0.01         0.00          2.59917
             Al 48 -- Ni 120                 0.18        -0.00          2.59936
            Ni 117 -- Ni 191                 0.08         0.00          2.59942
            Ni 7   -- Ni 107                 0.03         0.00          2.59998
             Al 3  -- Ni 108                 0.17         0.00          2.60025
            Ni 140 -- Ni 141                 0.06        -0.00          2.60030
            Ni 99  -- Ni 169                 0.01        -0.00          2.60048
             Al 60 -- Ni 105                 0.16         0.00          2.60058
            Ni 47  -- Ni 163                 0.06         0.00          2.60157
            Ni 126 -- Ni 128                 0.09        -0.00          2.60214
            Ni 104 -- Ni 105                 0.05        -0.00          2.60290
            Ni 108 -- Ni 111                 0.02         0.00          2.60297
            Ni 100 -- Ni 107                 0.04         0.00          2.60305
             Al 17 -- Ni 134                 0.18         0.00          2.60347
            Ni 170 -- Ni 171                -0.02         0.00          2.60368
            Ni 95  -- Ni 96                  0.01         0.00          2.60470
            Ni 131 -- Ni 133                 0.12        -0.00          2.60510
            Ni 112 -- Ni 122                 0.11         0.00          2.60527
             Al 11 -- Ni 31                  0.19        -0.00          2.60548
            Ni 65  -- Ni 66                  0.02         0.00          2.60560
            Ni 7   -- Ni 8                   0.05         0.00          2.60593
            Ni 146 -- Ni 174                 0.01         0.00          2.60604
             Al 51 -- Ni 163                 0.17        -0.00          2.60644
            Ni 161 -- Ni 162                -0.00         0.00          2.60659
             Al 49 -- Ni 139                 0.16         0.00          2.60686
            Ni 42  -- Ni 47                 -0.01         0.00          2.60687
             Al 36 -- Ni 184                 0.19        -0.00          2.60687
            Ni 59  -- Ni 78                 -0.01         0.00          2.60774
            Ni 100 -- Ni 180                 0.11         0.00          2.60785
             Al 61 -- Ni 100                 0.19         0.00          2.60792
            Ni 71  -- Ni 90                  0.02         0.00          2.60807
            Ni 26  -- Ni 43                  0.07         0.00          2.60819
             Al 3  -- Ni 180                 0.16         0.00          2.60820
            Ni 121 -- Ni 173                 0.01         0.00          2.60831
             Al 19 -- Ni 31                  0.19         0.00          2.60945
            Ni 54  -- Ni 59                  0.00         0.00          2.60974
             Al 19 -- Ni 134                 0.18         0.00          2.61005
             Al 17 -- Ni 49                  0.18         0.00          2.61065
            Ni 13  -- Ni 20                  0.05         0.00          2.61107
            Ni 53  -- Ni 54                 -0.00         0.00          2.61123
             Al 38 -- Ni 177                 0.17         0.00          2.61134
            Ni 147 -- Ni 170                -0.03         0.00          2.61164
            Ni 25  -- Ni 126                -0.01         0.00          2.61279
            Ni 150 -- Ni 153                -0.02         0.00          2.61283
             Al 58 -- Ni 122                 0.17         0.00          2.61296
             Al 9  -- Ni 43                  0.19        -0.00          2.61394
             Al 34 -- Ni 122                 0.16        -0.00          2.61408
             Al 38 -- Ni 178                 0.17         0.00          2.61447
            Ni 151 -- Ni 152                 0.03         0.00          2.61486
            Ni 158 -- Ni 181                -0.01         0.00          2.61536
            Ni 53  -- Ni 78                  0.00         0.00          2.61560
            Ni 156 -- Ni 167                 0.11        -0.00          2.61580
            Ni 169 -- Ni 172                 0.01         0.00          2.61652
            Ni 114 -- Ni 133                 0.10         0.00          2.61734
            Ni 111 -- Ni 186                 0.07         0.00          2.61750
             Al 35 -- Ni 122                 0.18         0.00          2.61798
             Al 63 -- Ni 100                 0.17         0.00          2.61819
            Ni 152 -- Ni 153                 0.12         0.00          2.61826
            Ni 65  -- Ni 148                 0.05         0.00          2.61850
            Ni 178 -- Ni 184                 0.03         0.00          2.61854
            Ni 106 -- Ni 114                 0.10         0.00          2.61914
            Ni 143 -- Ni 167                 0.01         0.00          2.61947
             Al 36 -- Ni 122                 0.17         0.00          2.61975
            Ni 110 -- Ni 118                 0.04        -0.00          2.62030
            Ni 178 -- Ni 179                 0.06         0.00          2.62053
            Ni 173 -- Ni 192                 0.00         0.00          2.62120
            Ni 114 -- Ni 135                 0.06         0.00          2.62120
            Ni 172 -- Ni 177                -0.02         0.00          2.62260
             Al 58 -- Ni 119                 0.16         0.00          2.62388
             Al 40 -- Ni 143                 0.18         0.00          2.62403
             Al 47 -- Ni 150                 0.18         0.00          2.62478
            Ni 170 -- Ni 175                -0.03         0.00          2.62495
            Ni 130 -- Ni 153                -0.01         0.00          2.62512
            Ni 156 -- Ni 157                 0.12         0.00          2.62528
            Ni 168 -- Ni 177                 0.03        -0.00          2.62669
             Al 50 -- Ni 117                 0.15        -0.00          2.62790
            Ni 102 -- Ni 109                -0.02        -0.00          2.62854
            Ni 127 -- Ni 135                -0.03         0.00          2.62979
             Al 23 -- Ni 166                 0.14         0.00          2.63012
             Al 60 -- Ni 112                 0.13        -0.00          2.63229
             Al 60 -- Ni 176                 0.14        -0.00          2.63247
            Ni 136 -- Ni 141                 0.02         0.00          2.63310
            Ni 107 -- Ni 114                 0.05         0.00          2.63329
             Al 43 -- Ni 150                 0.16         0.00          2.63421
            Ni 154 -- Ni 155                 0.06         0.00          2.63447
             Al 37 -- Ni 190                 0.15        -0.00          2.63544
             Al 39 -- Ni 178                 0.18        -0.00          2.63632
            Ni 100 -- Ni 101                 0.08         0.00          2.63642
            Ni 158 -- Ni 160                 0.10         0.00          2.63699
            Ni 115 -- Ni 117                 0.09         0.00          2.63712
            Ni 155 -- Ni 188                 0.03         0.00          2.63722
             Al 61 -- Ni 104                 0.14        -0.00          2.63891
            Ni 124 -- Ni 125                 0.03        -0.00          2.63907
            Ni 102 -- Ni 108                 0.09         0.00          2.64001
            Ni 162 -- Ni 164                 0.01         0.00          2.64013
             Al 56 -- Ni 130                 0.15         0.00          2.64084
             Al 38 -- Ni 182                 0.16         0.00          2.64112
             Al 43 -- Ni 155                 0.18        -0.00          2.64197
             Al 50 -- Al 58                  0.24         0.00          2.64204
             Al 48 -- Al 49                  0.25         0.00          2.64382
            Ni 100 -- Ni 103                 0.10        -0.00          2.64457
            Ni 126 -- Ni 127                 0.01         0.00          2.64462
             Al 59 -- Ni 13                  0.13         0.00          2.64650
             Al 35 -- Ni 189                 0.15         0.00          2.64749
             Al 48 -- Al 50                  0.24         0.00          2.64927
             Al 56 -- Ni 124                 0.15         0.00          2.64988
            Ni 156 -- Ni 162                 0.11         0.00          2.64998
             Al 50 -- Ni 119                 0.13         0.00          2.65164
             Al 23 -- Ni 159                 0.13         0.00          2.65195
             Al 37 -- Ni 122                 0.16         0.00          2.65232
             Al 35 -- Ni 190                 0.13        -0.00          2.65761
             Al 46 -- Ni 147                 0.11         0.00          2.65820
             Al 42 -- Ni 153                 0.16         0.00          2.66162
            Ni 148 -- Ni 150                 0.08         0.00          2.66242
             Al 33 -- Ni 122                 0.14         0.00          2.66401
             Al 23 -- Al 49                  0.24         0.00          2.66666
            Ni 129 -- Ni 130                 0.08         0.00          2.66707
             Al 38 -- Al 45                  0.23         0.00          2.66979
             Al 43 -- Ni 160                 0.14        -0.00          2.67158
             Al 13 -- Ni 139                 0.15         0.00          2.67237
             Al 42 -- Al 43                  0.24         0.00          2.67480
            Ni 161 -- Ni 170                 0.03         0.00          2.67877
             Al 54 -- Ni 129                 0.15         0.00          2.68833
            Ni 130 -- Ni 149                 0.01         0.00          2.69254
             Al 46 -- Al 56                  0.23         0.00          2.69349
            Ni 168 -- Ni 169                 0.02         0.00          2.69924
             Al 52 -- Ni 31                  0.11        -0.00          2.69997
             Al 59 -- Ni 7                   0.10         0.00          2.70100
             Al 54 -- Ni 156                 0.13        -0.00          2.70954
             Al 45 -- Al 62                  0.19         0.00          2.71163
            Ni 149 -- Ni 150                 0.00         0.00          2.71211
             Al 52 -- Ni 37                  0.11         0.00          2.71383
             Al 61 -- Al 63                  0.20        -0.00          2.71907
             Al 46 -- Al 47                  0.21         0.00          2.72098
             Al 42 -- Al 45                  0.21         0.00          2.72204
             Al 36 -- Al 37                  0.21         0.00          2.73022
             Al 44 -- Al 45                  0.20         0.00          2.73141
             Al 34 -- Al 35                  0.20         0.00          2.73261
            Ni 164 -- Ni 170                 0.03         0.00          2.73364
             Al 33 -- Al 58                  0.20         0.00          2.73742
             Al 34 -- Al 37                  0.19         0.00          2.74414
             Al 33 -- Al 35                  0.20         0.00          2.74453
             Al 41 -- Al 43                  0.19         0.00          2.76359
             Al 55 -- Al 56                  0.18         0.00          2.76483
             Al 15 -- Al 49                  0.20         0.00          2.76689
             Al 55 -- Al 63                  0.17         0.00          2.76729
             Al 13 -- Al 52                  0.22         0.00          2.76919
             Al 13 -- Al 59                  0.21         0.00          2.76995
             Al 47 -- Al 62                  0.17         0.00          2.77166
             Al 44 -- Al 46                  0.17         0.00          2.77484
             Al 41 -- Al 53                  0.20         0.00          2.77598
             Al 42 -- Ni 150                 0.11         0.00          2.77906
             Al 40 -- Al 51                  0.20         0.00          2.78361
             Al 57 -- Al 63                  0.16         0.00          2.79034
             Al 56 -- Al 57                  0.16         0.00          2.82561
             Al 5  -- Al 59                  0.15         0.00          2.82585
             Al 21 -- Al 52                  0.16         0.00          2.83928
             Al 53 -- Al 54                  0.14         0.00          2.87189
             Al 43 -- Al 54                  0.12         0.00          2.88014
             Al 44 -- Al 62                  0.11         0.00          2.90120
             Al 55 -- Al 57                  0.09         0.00          2.94203
================================================================================
 

Writing analysis data to castep.castep_bin

Writing model to castep.check
 
 A BibTeX formatted list of references used in this run has been written to 
 castep.bib
 
Initialisation time =     27.99 s
Calculation time    =  16470.14 s
Finalisation time   =      9.02 s
Total time          =  16507.16 s
Peak Memory Use     = 3970644 kB
 
Overall parallel efficiency rating: Satisfactory (66%)
 
Data was distributed by:-
G-vector (128-way); efficiency rating: Satisfactory (68%)
