 +-------------------------------------------------+
 |                                                 |
 |      CCC   AA    SSS  TTTTT  EEEEE  PPPP        |
 |     C     A  A  S       T    E      P   P       |
 |     C     AAAA   SS     T    EEE    PPPP        |
 |     C     A  A     S    T    E      P           |
 |      CCC  A  A  SSS     T    EEEEE  P           |
 |                                                 |
 +-------------------------------------------------+
 |                                                 |
 | Welcome to Academic Release CASTEP version 20.11|          
 | Ab Initio Total Energy Program                  |
 |                                                 |
 | Authors:                                        |
 | M. Segall, M. Probert, C. Pickard, P. Hasnip,   |
 | S. Clark, K. Refson, J. R. Yates, M. Payne      |
 |                                                 |
 | Contributors:                                   |
 | P. Lindan, P. Haynes, J. White, V. Milman,      |
 | N. Govind, M. Gibson, P. Tulip, V. Cocula,      |
 | B. Montanari, D. Quigley, M. Glover,            |
 | L. Bernasconi, A. Perlov, M. Plummer,           |
 | E. McNellis, J. Meyer, J. Gale, D. Jochym       |
 | J. Aarons, B. Walker, R. Gillen, D. Jones       |
 | T. Green, I. J. Bush, C. J. Armstrong,          |
 | E. J. Higgins, E. L. Brown, M. S. McFly,        |
 | J. Wilkins, B-C. Shih, P. J. P. Byrne,          |
 | R. J. Maurer, J. C. Womack, J. Dziedzic,        |
 | J. R. Kermode, A. Bartok-Partay                 |
 |                                                 |
 | Copyright (c) 2000 - 2020                       |
 |                                                 |
 |     Distributed under license from Cambridge    |
 |     Enterprise for academic use only.           |
 |                                                 |
 | Please cite                                     |
 |                                                 |
 |     "First principles methods using CASTEP"     |
 |                                                 |
 |         Zeitschrift fuer Kristallographie       |
 |           220(5-6) pp. 567-570 (2005)           |
 |                                                 |
 | S. J. Clark, M. D. Segall, C. J. Pickard,       |
 | P. J. Hasnip, M. J. Probert, K. Refson,         |
 | M. C. Payne                                     |
 |                                                 |
 |       in all publications arising from          |
 |              your use of CASTEP                 |
 |                                                 |
 +-------------------------------------------------+
 |                                                 |
 |              http://www.castep.org              |
 |                                                 |
 +-------------------------------------------------+
 
 
 
 Compiled for linux_x86_64_ifort on Wed, 25 Aug 2021 18:50:38 +0100
 from code version e772bf432+  HEAD  Sat Apr 3 17:41:32 2021 +0100
 Compiler: Intel Fortran 19.0.5.281; Optimisation: fast
 MATHLIBS: Intel MKL(2019.0.5) (LAPACK version 3.7.0)
 FFT Lib : mkl
 Fundamental constants values: CODATA 2014
 
 Run started: Wed, 08 Mar 2023 20:02:41 +0000
 
 Atomic calculation performed for Al: 1s2 2s2 2p6 3s2 3p1
 
 Converged in 52 iterations to an ae energy of -6606.982 eV
 
   ============================================================                
   | Pseudopotential Report - Date of generation  8-03-2023   |                
   ------------------------------------------------------------                
   | Element: Al Ionic charge:  3.00 Level of theory: RPBE    |                
   | Atomic Solver: Koelling-Harmon                           |                
   |                                                          |                
   |               Reference Electronic Structure             |                
   |         Orbital         Occupation         Energy        |                
   |            3s              2.000           -0.284        |                
   |            3p              1.000           -0.100        |                
   |                                                          |                
   |                 Pseudopotential Definition               |                
   |        Beta     l      e      Rc     scheme   norm       |                
   |          1      0   -0.284   2.192     qc      0         |                
   |          2      0    0.250   2.192     qc      0         |                
   |          3      1   -0.100   2.192     qc      0         |                
   |          4      1    0.250   2.192     qc      0         |                
   |          5      2    0.000   2.000     qc      0         |                
   |          6      2    0.250   2.000     qc      0         |                
   |         loc     3    0.000   2.192     pn      0         |                
   |                                                          |                
   | Augmentation charge Rinner = 1.398                       |                
   | Partial core correction Rc = 1.398                       |                
   ------------------------------------------------------------                
   | "3|2.2|2.2|1.4|4|5|5|30:31:32U2U2"                       |                
   ------------------------------------------------------------                
   |      Author: Chris J. Pickard, Cambridge University      |                
   ============================================================                
 
 Atomic calculation performed for Ni: 1s2 2s2 2p6 3s2 3p6 3d8 4s2
 
 Converged in 109 iterations to an ae energy of -41381.414 eV
 
   ============================================================                
   | Pseudopotential Report - Date of generation  8-03-2023   |                
   ------------------------------------------------------------                
   | Element: Ni Ionic charge: 10.00 Level of theory: RPBE    |                
   | Atomic Solver: Koelling-Harmon                           |                
   |                                                          |                
   |               Reference Electronic Structure             |                
   |         Orbital         Occupation         Energy        |                
   |            3d              8.000           -0.324        |                
   |            4s              2.000           -0.204        |                
   |                                                          |                
   |                 Pseudopotential Definition               |                
   |        Beta     l      e      Rc     scheme   norm       |                
   |          1      0   -0.204   2.401     qc      0         |                
   |          2      0    0.250   2.401     qc      0         |                
   |          3      1    0.000   2.401     qc      0         |                
   |          4      1    0.250   2.401     qc      0         |                
   |          5      2   -0.324   1.999     qc      0         |                
   |          6      2    0.250   1.999     qc      0         |                
   |         loc     3    0.000   2.401     pn      0         |                
   |                                                          |                
   | Augmentation charge Rinner = 1.001                       |                
   | Partial core correction Rc = 1.001                       |                
   ------------------------------------------------------------                
   | "3|2.4|2.4|1.0|8|9|10|40:41:32U2U2(qc=5.5)"              |                
   ------------------------------------------------------------                
   |      Author: Chris J. Pickard, Cambridge University      |                
   ============================================================                
 
 Pseudo atomic calculation performed for Al 3s2 3p1
 
 Converged in 13 iterations to a total energy of -107.6592 eV
 
 Pseudo atomic calculation performed for Ni 3d8 4s2
 
 Converged in 41 iterations to a total energy of -1369.7891 eV
 Calculation parallelised over 48 processes.
 Data is distributed by G-vector(48-way)

 ************************************ Title ************************************
 

 ***************************** General Parameters ******************************
  
 output verbosity                               : normal  (1)
 write checkpoint data to                       : castep.check
 type of calculation                            : geometry optimization
 stress calculation                             : off
 density difference calculation                 : off
 electron localisation func (ELF) calculation   : off
 Hirshfeld analysis                             : off
 molecular orbital projected DOS                : off
 deltaSCF calculation                           : off
 unlimited duration calculation
 timing information                             : on
 memory usage estimate                          : on
 write extra output files                       : on
 write final potential to formatted file        : off
 write final density to formatted file          : off
 write BibTeX reference list                    : on
 write OTFG pseudopotential files               : on
 write electrostatic potential file             : on
 write bands file                               : on
 checkpoint writing                             : both castep_bin and check files
  
 output         length unit                     : A
 output           mass unit                     : amu
 output           time unit                     : ps
 output         charge unit                     : e
 output           spin unit                     : hbar/2
 output         energy unit                     : eV
 output          force unit                     : eV/A
 output       velocity unit                     : A/ps
 output       pressure unit                     : GPa
 output     inv_length unit                     : 1/A
 output      frequency unit                     : cm-1
 output force constant unit                     : eV/A**2
 output         volume unit                     : A**3
 output   IR intensity unit                     : (D/A)**2/amu
 output         dipole unit                     : D
 output         efield unit                     : eV/A/e
 output        entropy unit                     : J/mol/K
 output    efield chi2 unit                     : pm/V
  
 wavefunctions paging                           : none
 random number generator seed                   : randomised (200241355)
 data distribution                              : optimal for this architecture
 optimization strategy                          : maximize speed(+++)

 *********************** Exchange-Correlation Parameters ***********************
  
 using functional                               : revised Perdew Burke Ernzerhof
 relativistic treatment                         : Koelling-Harmon
 DFT+D: Semi-empirical dispersion correction    : off

 ************************* Pseudopotential Parameters **************************
  
 pseudopotential representation                 : reciprocal space
 <beta|phi> representation                      : reciprocal space
 spin-orbit coupling                            : off

 **************************** Basis Set Parameters *****************************
  
 plane wave basis set cut-off                   :   900.0000   eV
 size of standard grid                          :     1.7500
 size of   fine   gmax                          :    26.8966   1/A
 finite basis set correction                    : none

 **************************** Electronic Parameters ****************************
  
 number of  electrons                           :  2109.    
 net charge of system                           :  0.000    
 net spin   of system                           :  1.000    
 number of  up  spins                           :  1055.    
 number of down spins                           :  1054.    
 treating system as spin-polarized
 number of bands                                :       1167

 ********************* Electronic Minimization Parameters **********************
  
 Method: Treating system as metallic with density mixing treatment of electrons,
         and number of  SD  steps               :          1
         and number of  CG  steps               :          4
  
 total energy / atom convergence tol.           : 0.1000E-05   eV
 eigen-energy convergence tolerance             : 0.2185E-06   eV
 max force / atom convergence tol.              : ignored
 convergence tolerance window                   :          3   cycles
 max. number of SCF cycles                      :        200
 number of fixed-spin iterations                :         10
 smearing scheme                                : Gaussian
 smearing width                                 : 0.2000       eV
 Fermi energy convergence tolerance             : 0.2721E-13   eV
 periodic dipole correction                     : NONE
 periodically dump wavefunctions to             : castep.wvfn
 dump wavefunctions every                       :          1   SCF cycles

 ************************** Density Mixing Parameters **************************
  
 density-mixing scheme                          : Pulay
 max. length of mixing history                  :         20
 charge density mixing amplitude                : 0.8000    
   spin density mixing amplitude                :  2.000    
 cut-off energy for mixing                      :  900.0       eV

 *********************** Population Analysis Parameters ************************
  
 Population analysis with cutoff                :  3.000       A
 Population analysis output                     : summary and pdos components

 ********************** Geometry Optimization Parameters ***********************
  
 optimization method                            : LBFGS
 max. no. of LBFGS updates                      : unbounded
 variable cell method                           : fixed basis quality
 max. number of steps                           :         30
 estimated bulk modulus                         :  500.0       GPa
 estimated <frequency>                          :  1668.       cm-1
 geom line minimiser                            : on
 with line minimiser tolerance                  :     0.4000
  with spin fully able to relax for all steps
 total energy convergence tolerance             : 0.2000E-04   eV/atom
        max ionic |force| tolerance             : 0.5000E-01   eV/A
 max ionic |displacement| tolerance             : 0.1000E-02   A
   max |stress component| tolerance             : 0.1000       GPa
 convergence tolerance window                   :          2   steps
 backup results every                           :          5   steps
 write geom trajectory file                     : on

 *******************************************************************************
  
 
                           -------------------------------
                                      Unit Cell
                           -------------------------------
        Real Lattice(A)                      Reciprocal Lattice(1/A)
    14.4648280     0.0000000     0.0000000        0.434376773   0.000000000   0.000000000
     0.0000000    14.4648280     0.0000000        0.000000000   0.434376773   0.000000000
     0.0000000     0.0000000    14.4648280        0.000000000   0.000000000   0.434376773
 
                       Lattice parameters(A)       Cell Angles
                    a =     14.464828          alpha =   90.000000
                    b =     14.464828          beta  =   90.000000
                    c =     14.464828          gamma =   90.000000
 
                       Current cell volume =          3026.494030       A**3
                                   density =             4.285146   AMU/A**3
                                           =             7.115653     g/cm^3
 
                           -------------------------------
                                     Cell Contents
                           -------------------------------
                         Total number of ions in cell =  255
                      Total number of species in cell =    2
                        Max number of any one species =  192
 
            xxxxxxxxxxxxxxxxxxxxxxxxxxxxxxxxxxxxxxxxxxxxxxxxxxxxxxxxxxxx
            x  Element    Atom        Fractional coordinates of atoms  x
            x            Number           u          v          w      x
            x----------------------------------------------------------x
            x  Al           1         0.569806   0.308622   0.065059   x 
            x  Al           2         0.817951   0.309632   0.062664   x 
            x  Al           3         0.568881   0.558713   0.066468   x 
            x  Al           4         0.817350   0.558387   0.063172   x 
            x  Al           5         0.574858   0.809258   0.059671   x 
            x  Al           6         0.818744   0.807916   0.061957   x 
            x  Al           7         0.571825   0.059181   0.062782   x 
            x  Al           8         0.819553   0.059517   0.061548   x 
            x  Al           9         0.569823   0.306122   0.313163   x 
            x  Al          10         0.819185   0.308383   0.312560   x 
            x  Al          11         0.573384   0.555040   0.312598   x 
            x  Al          12         0.818113   0.558917   0.312634   x 
            x  Al          13         0.577649   0.814984   0.312704   x 
            x  Al          14         0.819651   0.808958   0.312393   x 
            x  Al          15         0.574715   0.057059   0.308743   x 
            x  Al          16         0.820454   0.058863   0.312169   x 
            x  Al          17         0.575831   0.302865   0.560424   x 
            x  Al          18         0.818652   0.309210   0.562828   x 
            x  Al          19         0.573229   0.564155   0.559741   x 
            x  Al          20         0.817728   0.559166   0.562531   x 
            x  Al          21         0.575179   0.809576   0.566073   x 
            x  Al          22         0.819506   0.808399   0.563822   x 
            x  Al          23         0.577658   0.057871   0.569183   x 
            x  Al          24         0.820522   0.058410   0.564020   x 
            x  Al          25         0.571014   0.309951   0.811997   x 
            x  Al          26         0.817584   0.310510   0.813260   x 
            x  Al          27         0.568361   0.558297   0.812771   x 
            x  Al          28         0.817093   0.558170   0.813053   x 
            x  Al          29         0.570314   0.808081   0.813853   x 
            x  Al          30         0.819175   0.807413   0.813634   x 
            x  Al          31         0.572100   0.058932   0.812499   x 
            x  Al          32         0.819934   0.059407   0.814085   x 
            x  Al          33         0.328862   0.183238   0.934599   x 
            x  Al          34         0.056071   0.058323   0.808385   x 
            x  Al          35         0.192522   0.190652   0.805033   x 
            x  Al          36         0.321889   0.935684   0.939154   x 
            x  Al          37         0.192765   0.929975   0.805327   x 
            x  Al          38         0.318552   0.689580   0.944125   x 
            x  Al          39         0.074781   0.687234   0.929655   x 
            x  Al          40         0.197362   0.186655   0.572021   x 
            x  Al          41         0.066288   0.807061   0.566004   x 
            x  Al          42         0.325652   0.685599   0.688412   x 
            x  Al          43         0.193002   0.670154   0.563450   x 
            x  Al          44         0.325052   0.427628   0.687905   x 
            x  Al          45         0.327585   0.555988   0.819303   x 
            x  Al          46         0.198340   0.432133   0.547127   x 
            x  Al          47         0.065949   0.435124   0.684574   x 
            x  Al          48         0.317906   0.059858   0.311660   x 
            x  Al          49         0.441055   0.056783   0.444993   x 
            x  Al          50         0.185933   0.054361   0.184730   x 
            x  Al          51         0.066227   0.182485   0.441006   x 
            x  Al          52         0.433975   0.815754   0.439866   x 
            x  Al          53         0.069903   0.945639   0.441857   x 
            x  Al          54         0.200700   0.809930   0.431840   x 
            x  Al          55         0.432650   0.678665   0.311038   x 
            x  Al          56         0.437485   0.432543   0.545601   x 
            x  Al          57         0.193425   0.425568   0.319511   x 
            x  Al          58         0.187333   0.186962   0.058279   x 
            x  Al          59         0.434532   0.816990   0.185199   x 
            x  Al          60         0.191770   0.812312   0.187246   x 
            x  Al          61         0.192086   0.426487   0.056749   x 
            x  Al          62         0.191247   0.427430   0.822122   x 
            x  Al          63         0.188982   0.565211   0.186226   x 
            x  Ni           1         0.566326   0.431766   0.190718   x 
            x  Ni           2         0.694041   0.308251   0.188473   x 
            x  Ni           3         0.692558   0.433803   0.064397   x 
            x  Ni           4         0.818078   0.433915   0.187951   x 
            x  Ni           5         0.942832   0.309437   0.187429   x 
            x  Ni           6         0.942426   0.434346   0.062634   x 
            x  Ni           7         0.564261   0.687712   0.191739   x 
            x  Ni           8         0.692799   0.559065   0.188561   x 
            x  Ni           9         0.692856   0.682742   0.063981   x 
            x  Ni          10         0.818698   0.683407   0.187578   x 
            x  Ni          11         0.942537   0.558785   0.187665   x 
            x  Ni          12         0.942700   0.683078   0.062494   x 
            x  Ni          13         0.569249   0.932778   0.185210   x 
            x  Ni          14         0.695665   0.809096   0.186539   x 
            x  Ni          15         0.695876   0.934397   0.061256   x 
            x  Ni          16         0.820129   0.933822   0.186390   x 
            x  Ni          17         0.942996   0.808288   0.187066   x 
            x  Ni          18         0.943364   0.933396   0.061976   x 
            x  Ni          19         0.568782   0.183165   0.187725   x 
            x  Ni          20         0.696097   0.058622   0.185897   x 
            x  Ni          21         0.694106   0.184486   0.062391   x 
            x  Ni          22         0.819323   0.184128   0.186964   x 
            x  Ni          23         0.943433   0.058987   0.186860   x 
            x  Ni          24         0.943180   0.184762   0.062234   x 
            x  Ni          25         0.568748   0.432225   0.437722   x 
            x  Ni          26         0.694945   0.306625   0.436529   x 
            x  Ni          27         0.694403   0.432189   0.313257   x 
            x  Ni          28         0.818326   0.433905   0.437621   x 
            x  Ni          29         0.942747   0.309244   0.438060   x 
            x  Ni          30         0.942453   0.434216   0.312817   x 
            x  Ni          31         0.564607   0.689425   0.433060   x 
            x  Ni          32         0.693888   0.560210   0.436673   x 
            x  Ni          33         0.694229   0.684643   0.312469   x 
            x  Ni          34         0.819026   0.684279   0.437540   x 
            x  Ni          35         0.942400   0.559063   0.437932   x 
            x  Ni          36         0.942961   0.683701   0.312632   x 
            x  Ni          37         0.568742   0.935371   0.440257   x 
            x  Ni          38         0.695590   0.810250   0.438393   x 
            x  Ni          39         0.697786   0.935199   0.312221   x 
            x  Ni          40         0.820657   0.933755   0.438368   x 
            x  Ni          41         0.943351   0.808509   0.438125   x 
            x  Ni          42         0.943398   0.933533   0.312405   x 
            x  Ni          43         0.569798   0.177373   0.437541   x 
            x  Ni          44         0.696207   0.057442   0.438265   x 
            x  Ni          45         0.695586   0.182484   0.312252   x 
            x  Ni          46         0.820048   0.183135   0.437590   x 
            x  Ni          47         0.943929   0.058665   0.438191   x 
            x  Ni          48         0.943412   0.184008   0.312458   x 
            x  Ni          49         0.565872   0.434256   0.680437   x 
            x  Ni          50         0.694282   0.309716   0.687658   x 
            x  Ni          51         0.693787   0.433945   0.561234   x 
            x  Ni          52         0.817732   0.434591   0.687738   x 
            x  Ni          53         0.942823   0.309984   0.688234   x 
            x  Ni          54         0.942473   0.434483   0.563024   x 
            x  Ni          55         0.567159   0.683821   0.688675   x 
            x  Ni          56         0.692516   0.558858   0.687210   x 
            x  Ni          57         0.694391   0.684932   0.562037   x 
            x  Ni          58         0.818286   0.682873   0.688404   x 
            x  Ni          59         0.942523   0.558832   0.688035   x 
            x  Ni          60         0.942701   0.683503   0.563286   x 
            x  Ni          61         0.570598   0.933057   0.690555   x 
            x  Ni          62         0.695399   0.807913   0.690082   x 
            x  Ni          63         0.697380   0.933449   0.564742   x 
            x  Ni          64         0.820290   0.933065   0.689600   x 
            x  Ni          65         0.943322   0.807877   0.688688   x 
            x  Ni          66         0.943728   0.933317   0.563827   x 
            x  Ni          67         0.570994   0.183588   0.688807   x 
            x  Ni          68         0.697676   0.058636   0.690690   x 
            x  Ni          69         0.697809   0.182480   0.563332   x 
            x  Ni          70         0.819701   0.184842   0.689224   x 
            x  Ni          71         0.943620   0.058959   0.688884   x 
            x  Ni          72         0.942935   0.184264   0.563481   x 
            x  Ni          73         0.567324   0.434228   0.940255   x 
            x  Ni          74         0.692479   0.309766   0.938379   x 
            x  Ni          75         0.690865   0.434732   0.811886   x 
            x  Ni          76         0.816931   0.434358   0.937917   x 
            x  Ni          77         0.942803   0.310068   0.937694   x 
            x  Ni          78         0.942534   0.434550   0.812963   x 
            x  Ni          79         0.567582   0.683420   0.938635   x 
            x  Ni          80         0.691803   0.558278   0.938812   x 
            x  Ni          81         0.692945   0.682275   0.813313   x 
            x  Ni          82         0.817797   0.682300   0.938119   x 
            x  Ni          83         0.942468   0.558540   0.937901   x 
            x  Ni          84         0.942799   0.682775   0.813215   x 
            x  Ni          85         0.569116   0.934442   0.936813   x 
            x  Ni          86         0.695035   0.807910   0.937023   x 
            x  Ni          87         0.695600   0.933329   0.813988   x 
            x  Ni          88         0.819620   0.933672   0.937529   x 
            x  Ni          89         0.942983   0.807796   0.937794   x 
            x  Ni          90         0.943822   0.933276   0.813441   x 
            x  Ni          91         0.568091   0.183801   0.937788   x 
            x  Ni          92         0.694579   0.059582   0.937409   x 
            x  Ni          93         0.694561   0.185060   0.813737   x 
            x  Ni          94         0.818791   0.185204   0.937794   x 
            x  Ni          95         0.943731   0.059253   0.937630   x 
            x  Ni          96         0.943449   0.185080   0.813288   x 
            x  Ni          97         0.072830   0.431161   0.186795   x 
            x  Ni          98         0.191935   0.306445   0.186735   x 
            x  Ni          99         0.064917   0.306351   0.060173   x 
            x  Ni         100         0.312163   0.432397   0.187991   x 
            x  Ni         101         0.442260   0.306972   0.190645   x 
            x  Ni         102         0.317038   0.557594   0.063230   x 
            x  Ni         103         0.320140   0.305262   0.062716   x 
            x  Ni         104         0.066030   0.560488   0.057941   x 
            x  Ni         105         0.065169   0.687893   0.186848   x 
            x  Ni         106         0.315101   0.685121   0.184373   x 
            x  Ni         107         0.441818   0.557475   0.189699   x 
            x  Ni         108         0.444424   0.685947   0.066409   x 
            x  Ni         109         0.190257   0.686468   0.061682   x 
            x  Ni         110         0.065588   0.934550   0.185093   x 
            x  Ni         111         0.316805   0.812873   0.062332   x 
            x  Ni         112         0.190165   0.936728   0.057401   x 
            x  Ni         113         0.314069   0.939045   0.184710   x 
            x  Ni         114         0.318439   0.812068   0.309959   x 
            x  Ni         115         0.444956   0.936072   0.061698   x 
            x  Ni         116         0.065355   0.181074   0.184365   x 
            x  Ni         117         0.315998   0.062240   0.059553   x 
            x  Ni         118         0.066715   0.058915   0.055875   x 
            x  Ni         119         0.314812   0.179872   0.186090   x 
            x  Ni         120         0.443526   0.057239   0.187284   x 
            x  Ni         121         0.445038   0.183122   0.064088   x 
            x  Ni         122         0.193170   0.061874   0.928562   x 
            x  Ni         123         0.065619   0.430864   0.437518   x 
            x  Ni         124         0.191733   0.301352   0.437857   x 
            x  Ni         125         0.063956   0.304163   0.312175   x 
            x  Ni         126         0.446559   0.302658   0.435771   x 
            x  Ni         127         0.438317   0.432384   0.317735   x 
            x  Ni         128         0.319064   0.304683   0.313795   x 
            x  Ni         129         0.070257   0.685836   0.440089   x 
            x  Ni         130         0.191553   0.557526   0.433084   x 
            x  Ni         131         0.191399   0.685426   0.310824   x 
            x  Ni         132         0.066315   0.558595   0.311654   x 
            x  Ni         133         0.316028   0.682608   0.438127   x 
            x  Ni         134         0.444263   0.560813   0.434024   x 
            x  Ni         135         0.313727   0.554717   0.311409   x 
            x  Ni         136         0.065820   0.059667   0.312760   x 
            x  Ni         137         0.069375   0.815102   0.316211   x 
            x  Ni         138         0.315088   0.938455   0.440023   x 
            x  Ni         139         0.444489   0.936655   0.313814   x 
            x  Ni         140         0.191164   0.937997   0.312956   x 
            x  Ni         141         0.193967   0.063596   0.441017   x 
            x  Ni         142         0.190257   0.181730   0.310324   x 
            x  Ni         143         0.318020   0.180585   0.439169   x 
            x  Ni         144         0.444086   0.178014   0.313236   x 
            x  Ni         145         0.064866   0.308904   0.563085   x 
            x  Ni         146         0.448799   0.308993   0.682983   x 
            x  Ni         147         0.321314   0.309070   0.558770   x 
            x  Ni         148         0.066431   0.679161   0.688399   x 
            x  Ni         149         0.064892   0.556357   0.563051   x 
            x  Ni         150         0.197807   0.549121   0.690379   x 
            x  Ni         151         0.444901   0.557166   0.684527   x 
            x  Ni         152         0.444738   0.685578   0.560058   x 
            x  Ni         153         0.320811   0.555571   0.561509   x 
            x  Ni         154         0.064684   0.932195   0.687218   x 
            x  Ni         155         0.193012   0.803378   0.684728   x 
            x  Ni         156         0.191235   0.933597   0.565350   x 
            x  Ni         157         0.318285   0.932130   0.688771   x 
            x  Ni         158         0.445924   0.809728   0.686520   x 
            x  Ni         159         0.444699   0.933884   0.565368   x 
            x  Ni         160         0.315934   0.807019   0.563678   x 
            x  Ni         161         0.064882   0.186224   0.686487   x 
            x  Ni         162         0.191131   0.059456   0.691489   x 
            x  Ni         163         0.067446   0.061746   0.566501   x 
            x  Ni         164         0.320510   0.186986   0.689229   x 
            x  Ni         165         0.446315   0.058110   0.687215   x 
            x  Ni         166         0.445640   0.181834   0.563847   x 
            x  Ni         167         0.318108   0.059509   0.567997   x 
            x  Ni         168         0.066252   0.431621   0.935905   x 
            x  Ni         169         0.194610   0.303185   0.935928   x 
            x  Ni         170         0.192949   0.316989   0.685276   x 
            x  Ni         171         0.063584   0.309412   0.808278   x 
            x  Ni         172         0.320227   0.431847   0.938752   x 
            x  Ni         173         0.447505   0.308734   0.939130   x 
            x  Ni         174         0.447229   0.432730   0.812710   x 
            x  Ni         175         0.323165   0.309213   0.812856   x 
            x  Ni         176         0.067164   0.810919   0.058020   x 
            x  Ni         177         0.194194   0.558624   0.938136   x 
            x  Ni         178         0.199362   0.680453   0.810265   x 
            x  Ni         179         0.066280   0.556959   0.811618   x 
            x  Ni         180         0.442115   0.432246   0.066362   x 
            x  Ni         181         0.443587   0.683657   0.814754   x 
            x  Ni         182         0.444773   0.559654   0.943066   x 
            x  Ni         183         0.068169   0.932809   0.930342   x 
            x  Ni         184         0.194938   0.811414   0.934572   x 
            x  Ni         185         0.066525   0.807285   0.808272   x 
            x  Ni         186         0.445012   0.809972   0.940110   x 
            x  Ni         187         0.444728   0.934163   0.812638   x 
            x  Ni         188         0.321361   0.809290   0.813126   x 
            x  Ni         189         0.066359   0.183885   0.930972   x 
            x  Ni         190         0.320507   0.059009   0.811004   x 
            x  Ni         191         0.446403   0.058572   0.937259   x 
            x  Ni         192         0.446830   0.184331   0.810408   x 
            xxxxxxxxxxxxxxxxxxxxxxxxxxxxxxxxxxxxxxxxxxxxxxxxxxxxxxxxxxxx
 
 
                         No user defined ionic velocities
 
                           -------------------------------
                                   Details of Species
                           -------------------------------
 
                               Mass of species in AMU
                                    Al   26.9815400
                                    Ni   58.6934000
 
                          Electric Quadrupole Moment (Barn)
                                    Al    0.1466000 Isotope 27
                                    Ni    0.1620000 Isotope 61
 
                          Files used for pseudopotentials:
                                    Al 3|2.2|2.2|1.4|4|5|5|30:31:32U2U2
                                    Ni 3|2.4|2.4|1.0|8|9|10|40:41:32U2U2(qc=5.5)
 
                           -------------------------------
                              k-Points For BZ Sampling
                           -------------------------------
                       MP grid size for SCF calculation is  1  1  1
                            with an offset of   0.000  0.000  0.000
                       Number of kpoints used =             1
 
                           -------------------------------
                               Symmetry and Constraints
                           -------------------------------
 
                      Maximum deviation from symmetry =  0.00000         ANG
 
                      Number of symmetry operations   =           1
                      Number of ionic constraints     =           3
                      Point group of crystal =     1: C1, 1, 1
                      Space group of crystal =     1: P1, P 1
 
             Set iprint > 1 for details on symmetry rotations/translations
 
                         Centre of mass is constrained
             Set iprint > 1 for details of linear ionic constraints
 
                         Number of cell constraints= 6
                         Cell constraints are:  0 0 0 0 0 0
 
                         External pressure/stress (GPa)
                          0.00000   0.00000   0.00000
                                    0.00000   0.00000
                                              0.00000
  
+---------------- MEMORY AND SCRATCH DISK ESTIMATES PER PROCESS --------------+
|                                                     Memory          Disk    |
| Baseline code, static data and system overhead      622.0 MB         0.0 MB |
| BLAS internal memory storage                          0.0 MB         0.0 MB |
| Model and support data                              741.5 MB         0.0 MB |
| Electronic energy minimisation requirements         236.0 MB         0.0 MB |
| Force calculation requirements                        7.9 MB         0.0 MB |
|                                               ----------------------------- |
| Approx. total storage required per process         1599.5 MB         0.0 MB |
|                                                                             |
| Requirements will fluctuate during execution and may exceed these estimates |
+-----------------------------------------------------------------------------+
Calculating total energy with cut-off of  900.000 eV.
------------------------------------------------------------------------ <-- SCF
SCF loop      Energy           Fermi           Energy gain       Timer   <-- SCF
                               energy          per atom          (sec)   <-- SCF
------------------------------------------------------------------------ <-- SCF
Initial  -2.19118231E+005  0.00000000E+000                        20.31  <-- SCF
      1  -2.63669330E+005  7.12348698E+000   1.74710193E+002     106.73  <-- SCF
      2  -2.70654244E+005  3.64387370E+000   2.73918175E+001     188.48  <-- SCF
      3  -2.71369907E+005  3.54046958E+000   2.80652007E+000     273.69  <-- SCF
      4  -2.71426028E+005  3.65651269E+000   2.20083659E-001     351.15  <-- SCF
      5  -2.71718654E+005  6.63345941E+000   1.14755412E+000     445.45  <-- SCF
      6  -2.71508396E+005  5.53521147E+000  -8.24542529E-001     555.33  <-- SCF
      7  -2.71403984E+005  4.55696125E+000  -4.09457326E-001     653.60  <-- SCF
      8  -2.71387397E+005  4.40756371E+000  -6.50463171E-002     755.97  <-- SCF
      9  -2.71394021E+005  4.47230686E+000   2.59747339E-002     849.39  <-- SCF
     10  -2.71393725E+005  4.43205829E+000  -1.16142063E-003     945.33  <-- SCF
     11  -2.72200547E+005  6.10898087E+000   3.16400680E+000    1045.10  <-- SCF
     12  -2.72211786E+005  6.07789005E+000   4.40750699E-002    1129.93  <-- SCF
     13  -2.71499174E+005  4.80939206E+000  -2.79455380E+000    1254.38  <-- SCF
     14  -2.71564739E+005  4.79626799E+000   2.57116491E-001    1337.27  <-- SCF
     15  -2.71429977E+005  4.29929784E+000  -5.28477199E-001    1436.97  <-- SCF
     16  -2.71396863E+005  4.23045203E+000  -1.29859202E-001    1536.05  <-- SCF
     17  -2.71391970E+005  4.28937539E+000  -1.91890026E-002    1628.29  <-- SCF
     18  -2.71389287E+005  4.34345480E+000  -1.05229806E-002    1719.78  <-- SCF
     19  -2.71386920E+005  4.36401414E+000  -9.28075096E-003    1814.18  <-- SCF
     20  -2.71385737E+005  4.36235912E+000  -4.64080719E-003    1909.23  <-- SCF
     21  -2.71385425E+005  4.35342494E+000  -1.22483484E-003    2003.77  <-- SCF
     22  -2.71385273E+005  4.34939491E+000  -5.93775428E-004    2098.61  <-- SCF
     23  -2.71385134E+005  4.35410617E+000  -5.45448002E-004    2193.74  <-- SCF
     24  -2.71385048E+005  4.36139129E+000  -3.38680998E-004    2287.01  <-- SCF
     25  -2.71384990E+005  4.36623292E+000  -2.27093584E-004    2382.72  <-- SCF
     26  -2.71384841E+005  4.37176697E+000  -5.83451734E-004    2477.21  <-- SCF
     27  -2.71384780E+005  4.37466235E+000  -2.38356443E-004    2572.34  <-- SCF
     28  -2.71384775E+005  4.37557179E+000  -2.01529789E-005    2666.85  <-- SCF
     29  -2.71384770E+005  4.37685924E+000  -2.14903208E-005    2758.28  <-- SCF
     30  -2.71384768E+005  4.37744060E+000  -5.94642496E-006    2845.46  <-- SCF
     31  -2.71384768E+005  4.37842981E+000  -1.79463381E-006    2932.38  <-- SCF
     32  -2.71384765E+005  4.37939219E+000  -8.30895671E-006    3020.60  <-- SCF
     33  -2.71384765E+005  4.37936456E+000  -2.40884932E-007    3082.57  <-- SCF
     34  -2.71384765E+005  4.37934148E+000  -5.38188157E-008    3144.49  <-- SCF
------------------------------------------------------------------------ <-- SCF
 
Integrated Spin Density     =    0.165970     hbar/2                        
Integrated |Spin Density|   =    0.255988     hbar/2                        
 
Final energy, E             =  -271380.2409400     eV
Final free energy (E-TS)    =  -271384.7653795     eV
(energies not corrected for finite basis set)
 
NB est. 0K energy (E-0.5TS)      =  -271382.5031597     eV
 

Writing analysis data to castep.castep_bin

Writing model to castep.check
 
+---------------- MEMORY AND SCRATCH DISK ESTIMATES PER PROCESS --------------+
|                                                     Memory          Disk    |
| Model and support data                              750.6 MB         0.0 MB |
| Electronic energy minimisation requirements         236.0 MB         0.0 MB |
| Geometry minimisation requirements                  309.4 MB         0.0 MB |
|                                               ----------------------------- |
| Approx. total storage required per process         1296.0 MB         0.0 MB |
|                                                                             |
| Requirements will fluctuate during execution and may exceed these estimates |
+-----------------------------------------------------------------------------+
 
 
 ************************************** Forces **************************************
 *                                                                                  *
 *                           Cartesian components (eV/A)                            *
 * -------------------------------------------------------------------------------- *
 *                         x                    y                    z              *
 *                                                                                  *
 * Al              1     -0.11199             -0.00998             -0.03513         *
 * Al              2      0.04583             -0.02377             -0.00263         *
 * Al              3     -0.09929             -0.01777             -0.00779         *
 * Al              4      0.08071             -0.01045              0.00598         *
 * Al              5     -0.07737             -0.00087             -0.13881         *
 * Al              6      0.11476              0.02423              0.00727         *
 * Al              7     -0.15621              0.04173             -0.03262         *
 * Al              8      0.06603              0.01624             -0.02249         *
 * Al              9     -0.06445              0.04664             -0.00734         *
 * Al             10      0.04809              0.01199             -0.02872         *
 * Al             11     -0.03589             -0.12666              0.00334         *
 * Al             12      0.09570              0.00115             -0.02014         *
 * Al             13      0.35404              0.07565             -0.01682         *
 * Al             14      0.03795             -0.04728             -0.03269         *
 * Al             15     -0.02189              0.00763             -0.11388         *
 * Al             16      0.06851              0.03522             -0.02012         *
 * Al             17     -0.08778             -0.05973              0.00742         *
 * Al             18      0.02496              0.02803             -0.00605         *
 * Al             19     -0.05483              0.04702             -0.02340         *
 * Al             20      0.06887             -0.00490             -0.01406         *
 * Al             21     -0.05062              0.00456              0.11967         *
 * Al             22      0.12069              0.00070             -0.00424         *
 * Al             23     -0.00251              0.02526              0.10334         *
 * Al             24      0.02523             -0.00203             -0.02057         *
 * Al             25     -0.11580             -0.06998              0.01631         *
 * Al             26      0.00176             -0.02232              0.01714         *
 * Al             27     -0.12114              0.00175              0.02985         *
 * Al             28      0.07146              0.02223              0.00986         *
 * Al             29     -0.14723              0.06522              0.02403         *
 * Al             30      0.05129              0.00348              0.02174         *
 * Al             31     -0.18205              0.01045              0.02881         *
 * Al             32      0.08751             -0.02311              0.03800         *
 * Al             33      0.12094              0.08451              0.12000         *
 * Al             34      0.36771              0.15141              0.30185         *
 * Al             35     -0.01935              0.00959             -0.06724         *
 * Al             36      0.16093              0.05077              0.21718         *
 * Al             37     -0.04925             -0.29188             -0.04736         *
 * Al             38      0.04540              0.07106              0.20491         *
 * Al             39     -0.55186             -0.28263              0.53043         *
 * Al             40      0.06420             -0.22870             -0.06323         *
 * Al             41     -0.68539             -0.05613              0.59607         *
 * Al             42      0.24965              0.22627             -0.14372         *
 * Al             43     -0.14232             -0.11480             -0.07622         *
 * Al             44      0.18643             -0.19175             -0.30366         *
 * Al             45     -0.06982              0.02133              0.22531         *
 * Al             46      0.03274              0.09742             -0.25424         *
 * Al             47     -0.69861             -0.06034              0.09874         *
 * Al             48     -0.25221             -0.08941             -0.03048         *
 * Al             49      0.01736              0.17721              0.12813         *
 * Al             50     -0.28617              0.06180             -0.04480         *
 * Al             51     -0.38287              0.03395             -0.66802         *
 * Al             52     -0.13021              0.03439              0.20868         *
 * Al             53     -0.51059             -0.07577             -0.65335         *
 * Al             54      0.10970             -0.05656             -0.16806         *
 * Al             55     -0.22343             -0.14033             -0.10666         *
 * Al             56      0.00888             -0.08955             -0.10594         *
 * Al             57     -0.00978             -0.07294             -0.00026         *
 * Al             58     -0.08182              0.03937              0.13101         *
 * Al             59     -0.02001              0.09038             -0.28267         *
 * Al             60     -0.18118             -0.03533             -0.15223         *
 * Al             61     -0.00523              0.04843              0.00393         *
 * Al             62     -0.19637              0.00010              0.27896         *
 * Al             63      0.00107              0.08581             -0.00896         *
 * Ni              1     -0.03784              0.05264             -0.02383         *
 * Ni              2      0.01375             -0.00651              0.01326         *
 * Ni              3      0.01366              0.01834              0.03146         *
 * Ni              4      0.11269             -0.01413             -0.00499         *
 * Ni              5      0.16690             -0.01369             -0.02806         *
 * Ni              6      0.19570              0.03892              0.02855         *
 * Ni              7      0.12128              0.20887              0.29962         *
 * Ni              8      0.02977             -0.01029              0.01316         *
 * Ni              9      0.04291              0.00705             -0.01797         *
 * Ni             10     -0.00264              0.00019              0.02875         *
 * Ni             11      0.35131             -0.07470             -0.05118         *
 * Ni             12      0.22097              0.07724             -0.02720         *
 * Ni             13      0.09958             -0.15473              0.18129         *
 * Ni             14     -0.06043             -0.01543              0.00612         *
 * Ni             15     -0.08491             -0.02251              0.04629         *
 * Ni             16     -0.02223              0.00104             -0.01563         *
 * Ni             17      0.13177              0.11572              0.00656         *
 * Ni             18      0.12707             -0.00765             -0.16163         *
 * Ni             19      0.00316             -0.01749              0.07781         *
 * Ni             20      0.05305              0.01308              0.00742         *
 * Ni             21      0.00000             -0.00694             -0.00729         *
 * Ni             22      0.02564              0.01154             -0.01954         *
 * Ni             23      0.15302             -0.00915             -0.05439         *
 * Ni             24      0.05649             -0.10916             -0.11625         *
 * Ni             25      0.03625              0.04003              0.07927         *
 * Ni             26      0.04172              0.08682              0.01232         *
 * Ni             27      0.08289              0.00872             -0.04390         *
 * Ni             28      0.00205              0.01859             -0.05733         *
 * Ni             29      0.07296              0.07193             -0.02276         *
 * Ni             30      0.24386             -0.06856             -0.10249         *
 * Ni             31      0.17027              0.19770             -0.29021         *
 * Ni             32     -0.02519             -0.05937              0.01995         *
 * Ni             33     -0.05394              0.01915              0.01030         *
 * Ni             34     -0.05170             -0.08161             -0.01711         *
 * Ni             35      0.20221             -0.01476             -0.00002         *
 * Ni             36      0.25595              0.11096              0.05754         *
 * Ni             37      0.19780             -0.05955             -0.07103         *
 * Ni             38      0.02289             -0.03920              0.00953         *
 * Ni             39     -0.07651             -0.00183              0.02500         *
 * Ni             40     -0.01752             -0.04569             -0.01953         *
 * Ni             41      0.33616              0.05248             -0.02019         *
 * Ni             42      0.16840              0.06802             -0.07646         *
 * Ni             43      0.09123             -0.02531              0.02456         *
 * Ni             44      0.08694              0.00074             -0.00280         *
 * Ni             45     -0.03399             -0.00124              0.03791         *
 * Ni             46      0.00212              0.07498             -0.00261         *
 * Ni             47     -0.22740              0.11018              0.10687         *
 * Ni             48     -0.06582             -0.10717             -0.12208         *
 * Ni             49      0.22620             -0.05243             -0.00520         *
 * Ni             50     -0.01360             -0.01443             -0.01337         *
 * Ni             51     -0.00728              0.00763             -0.00556         *
 * Ni             52      0.05709             -0.01084              0.00750         *
 * Ni             53     -0.08271             -0.17293             -0.11227         *
 * Ni             54     -0.15877             -0.05904             -0.23514         *
 * Ni             55      0.09832              0.02734             -0.14445         *
 * Ni             56     -0.02066              0.01138             -0.03356         *
 * Ni             57      0.00047              0.00974              0.01149         *
 * Ni             58     -0.01903              0.01356             -0.03501         *
 * Ni             59     -0.01534              0.13455             -0.02194         *
 * Ni             60      0.09189             -0.14579             -0.04914         *
 * Ni             61      0.08959              0.05552             -0.16024         *
 * Ni             62     -0.00405             -0.02542             -0.01037         *
 * Ni             63     -0.11088              0.00099             -0.06165         *
 * Ni             64     -0.03783              0.01407              0.01504         *
 * Ni             65     -0.03461             -0.10724              0.11988         *
 * Ni             66      0.06801              0.03282             -0.02118         *
 * Ni             67      0.07253             -0.01529             -0.12910         *
 * Ni             68     -0.00203              0.00882             -0.01767         *
 * Ni             69     -0.04102             -0.02173             -0.02359         *
 * Ni             70     -0.00773             -0.02954             -0.00697         *
 * Ni             71     -0.29987              0.03862             -0.48744         *
 * Ni             72     -0.13847             -0.03301              0.13160         *
 * Ni             73      0.10507             -0.00744              0.03544         *
 * Ni             74      0.03298             -0.00176             -0.00503         *
 * Ni             75      0.10387             -0.00920              0.03458         *
 * Ni             76      0.01524             -0.03048              0.06212         *
 * Ni             77      0.08613             -0.05762             -0.09065         *
 * Ni             78     -0.06801              0.00988              0.10487         *
 * Ni             79      0.11888             -0.02722              0.12885         *
 * Ni             80      0.03692              0.02959              0.00481         *
 * Ni             81      0.01227              0.02675             -0.00861         *
 * Ni             82      0.00778             -0.00708             -0.01018         *
 * Ni             83      0.12777             -0.06039             -0.08867         *
 * Ni             84     -0.01188             -0.04447             -0.13322         *
 * Ni             85      0.12363             -0.00670              0.04788         *
 * Ni             86      0.00183              0.00131             -0.00713         *
 * Ni             87     -0.00811             -0.01006             -0.00779         *
 * Ni             88     -0.04862              0.02410              0.02139         *
 * Ni             89      0.12309              0.11628             -0.15495         *
 * Ni             90     -0.28096             -0.35252             -0.11874         *
 * Ni             91      0.13649              0.05091             -0.00566         *
 * Ni             92      0.01259             -0.03309              0.01856         *
 * Ni             93      0.00000             -0.00529             -0.03623         *
 * Ni             94      0.02006              0.01186              0.01405         *
 * Ni             95     -0.13630             -0.06529              0.11101         *
 * Ni             96     -0.38350              0.27895             -0.12291         *
 * Ni             97     -0.30566              0.31392              0.00528         *
 * Ni             98      0.01872             -0.18349              0.15963         *
 * Ni             99      0.00219              0.28430              0.08919         *
 * Ni            100      0.24803              0.07834              0.20617         *
 * Ni            101     -0.22140              0.00716             -0.10584         *
 * Ni            102      0.02464             -0.08733              0.14113         *
 * Ni            103      0.09114              0.02095              0.03991         *
 * Ni            104      0.06633             -0.23741              0.40139         *
 * Ni            105     -0.02733             -0.17941              0.00495         *
 * Ni            106      0.31263             -0.05506              0.04848         *
 * Ni            107     -0.20299             -0.15640             -0.01640         *
 * Ni            108     -0.06985              0.00063              0.01366         *
 * Ni            109      0.01753             -0.00884             -0.04409         *
 * Ni            110     -0.12035             -0.17026              0.14959         *
 * Ni            111     -0.22943             -0.04531             -0.04724         *
 * Ni            112      0.02873             -0.14553             -0.03957         *
 * Ni            113      0.26143              0.13246              0.07428         *
 * Ni            114      0.01063             -0.00048              0.00963         *
 * Ni            115     -0.05738              0.00527              0.14556         *
 * Ni            116      0.12406              0.23278              0.14791         *
 * Ni            117      0.06524              0.02743              0.14318         *
 * Ni            118      0.13639             -0.01001              0.12227         *
 * Ni            119      0.16716              0.12434              0.05678         *
 * Ni            120     -0.02196              0.06345             -0.26490         *
 * Ni            121     -0.12064             -0.07920              0.23659         *
 * Ni            122     -0.17207             -0.06312              0.12638         *
 * Ni            123      0.03020              0.13871             -0.15951         *
 * Ni            124      0.09065             -0.11382              0.01955         *
 * Ni            125      0.21566              0.32034             -0.13229         *
 * Ni            126     -0.26590             -0.13523              0.11389         *
 * Ni            127     -0.02228             -0.04234             -0.19863         *
 * Ni            128     -0.14820             -0.14636              0.00253         *
 * Ni            129      0.03006              0.14304             -0.12304         *
 * Ni            130      0.01988              0.09446              0.02813         *
 * Ni            131      0.06400             -0.05275              0.14104         *
 * Ni            132      0.13535             -0.02346              0.02849         *
 * Ni            133      0.10457             -0.28922             -0.15263         *
 * Ni            134     -0.12209              0.01532              0.24557         *
 * Ni            135     -0.16754              0.06760              0.13110         *
 * Ni            136     -0.09944              0.08044             -0.17253         *
 * Ni            137     -0.26351             -0.43468             -0.04911         *
 * Ni            138      0.12148              0.08358             -0.02310         *
 * Ni            139     -0.13426             -0.03891             -0.09481         *
 * Ni            140      0.12333             -0.03467             -0.00719         *
 * Ni            141     -0.13148              0.05022              0.20650         *
 * Ni            142      0.21435              0.08101             -0.08905         *
 * Ni            143      0.32510              0.36957             -0.22113         *
 * Ni            144     -0.12987             -0.03106              0.02068         *
 * Ni            145      0.19757              0.06242             -0.07145         *
 * Ni            146     -0.35716             -0.11077              0.09114         *
 * Ni            147      0.00743             -0.02836              0.12444         *
 * Ni            148      0.26417              0.09383             -0.01268         *
 * Ni            149      0.22226             -0.03208             -0.23990         *
 * Ni            150      0.07421             -0.09176              0.27450         *
 * Ni            151     -0.30536             -0.03788              0.01971         *
 * Ni            152      0.02834             -0.03181             -0.06503         *
 * Ni            153     -0.09424              0.15005             -0.26584         *
 * Ni            154      0.25510              0.21384              0.01784         *
 * Ni            155     -0.00105             -0.12906              0.05965         *
 * Ni            156     -0.04886             -0.13453             -0.29550         *
 * Ni            157      0.25031              0.05400             -0.26634         *
 * Ni            158     -0.18112              0.09061              0.23688         *
 * Ni            159     -0.16305             -0.05105              0.11616         *
 * Ni            160     -0.25864              0.18032              0.23976         *
 * Ni            161      0.01509              0.07165              0.13069         *
 * Ni            162      0.00895             -0.13375              0.07961         *
 * Ni            163      0.09169              0.06592              0.26269         *
 * Ni            164      0.31836             -0.10925             -0.09215         *
 * Ni            165     -0.32451              0.08307              0.17208         *
 * Ni            166     -0.11591             -0.00352             -0.03559         *
 * Ni            167     -0.06164             -0.17076              0.10442         *
 * Ni            168     -0.24014              0.16299              0.22653         *
 * Ni            169     -0.03212             -0.12341             -0.05543         *
 * Ni            170      0.08929              0.26934              0.00971         *
 * Ni            171      0.26908              0.13042              0.33225         *
 * Ni            172      0.28281             -0.14472              0.01841         *
 * Ni            173     -0.27699              0.25815             -0.08764         *
 * Ni            174     -0.05812              0.01049              0.10922         *
 * Ni            175      0.00365             -0.03431             -0.01648         *
 * Ni            176      0.00664             -0.05123              0.22030         *
 * Ni            177      0.06448             -0.00648             -0.17752         *
 * Ni            178      0.08059              0.07361             -0.23049         *
 * Ni            179      0.28942             -0.07121              0.07881         *
 * Ni            180     -0.07313              0.02748             -0.10839         *
 * Ni            181     -0.09987             -0.03938              0.04682         *
 * Ni            182     -0.17294             -0.16528             -0.09729         *
 * Ni            183      0.06255              0.09330              0.36205         *
 * Ni            184     -0.15015              0.16055              0.00479         *
 * Ni            185      0.14766             -0.05374              0.01810         *
 * Ni            186     -0.00904             -0.10601             -0.13829         *
 * Ni            187     -0.07177             -0.10927             -0.18482         *
 * Ni            188      0.04320              0.18614             -0.07085         *
 * Ni            189     -0.05740              0.08102              0.27595         *
 * Ni            190      0.12901             -0.02690             -0.20519         *
 * Ni            191     -0.05994              0.04025             -0.10619         *
 * Ni            192      0.08285             -0.01863             -0.13374         *
 *                                                                                  *
 ************************************************************************************
 LBFGS: finished iteration     0 with enthalpy= -2.71384765E+005 eV
  
 +-----------+-----------------+-----------------+------------+-----+ <-- LBFGS
 | Parameter |      value      |    tolerance    |    units   | OK? | <-- LBFGS
 +-----------+-----------------+-----------------+------------+-----+ <-- LBFGS
 |  dE/ion   |   0.000000E+000 |   2.000000E-005 |         eV | No  | <-- LBFGS
 |  |F|max   |   9.100616E-001 |   5.000000E-002 |       eV/A | No  | <-- LBFGS
 |  |dR|max  |   0.000000E+000 |   1.000000E-003 |          A | No  | <-- LBFGS
 +-----------+-----------------+-----------------+------------+-----+ <-- LBFGS
  

================================================================================
 Starting LBFGS iteration          1 ...
================================================================================
  
 +------------+-------------+-------------+-----------------+ <-- min LBFGS
 |    Step    |   lambda    |   F.delta'  |    enthalpy     | <-- min LBFGS
 +------------+-------------+-------------+-----------------+ <-- min LBFGS
 |  previous  |    0.000000 |    2.059445 |  -271384.765379 | <-- min LBFGS
 +------------+-------------+-------------+-----------------+ <-- min LBFGS
  

--------------------------------------------------------------------------------
 LBFGS: starting iteration         1 with trial guess (lambda=  1.000000)
--------------------------------------------------------------------------------
 
                           -------------------------------
                                     Cell Contents
                           -------------------------------
 
            xxxxxxxxxxxxxxxxxxxxxxxxxxxxxxxxxxxxxxxxxxxxxxxxxxxxxxxxxxxxxxxxx
            x  Element         Atom        Fractional coordinates of atoms  x
            x                 Number           u          v          w      x
            x---------------------------------------------------------------x
            x  Al                1         0.569792   0.308621   0.065055   x
            x  Al                2         0.817957   0.309629   0.062663   x
            x  Al                3         0.568868   0.558710   0.066467   x
            x  Al                4         0.817361   0.558385   0.063173   x
            x  Al                5         0.574848   0.809258   0.059652   x
            x  Al                6         0.818759   0.807920   0.061958   x
            x  Al                7         0.571804   0.059187   0.062778   x
            x  Al                8         0.819562   0.059520   0.061545   x
            x  Al                9         0.569814   0.306128   0.313162   x
            x  Al               10         0.819191   0.308384   0.312556   x
            x  Al               11         0.573379   0.555023   0.312598   x
            x  Al               12         0.818126   0.558918   0.312631   x
            x  Al               13         0.577696   0.814994   0.312702   x
            x  Al               14         0.819656   0.808952   0.312388   x
            x  Al               15         0.574712   0.057060   0.308728   x
            x  Al               16         0.820463   0.058868   0.312166   x
            x  Al               17         0.575820   0.302857   0.560425   x
            x  Al               18         0.818655   0.309214   0.562828   x
            x  Al               19         0.573222   0.564161   0.559738   x
            x  Al               20         0.817737   0.559165   0.562529   x
            x  Al               21         0.575172   0.809577   0.566089   x
            x  Al               22         0.819522   0.808399   0.563822   x
            x  Al               23         0.577657   0.057875   0.569197   x
            x  Al               24         0.820525   0.058409   0.564018   x
            x  Al               25         0.570999   0.309942   0.812000   x
            x  Al               26         0.817584   0.310507   0.813263   x
            x  Al               27         0.568345   0.558298   0.812775   x
            x  Al               28         0.817102   0.558173   0.813054   x
            x  Al               29         0.570294   0.808089   0.813856   x
            x  Al               30         0.819182   0.807414   0.813637   x
            x  Al               31         0.572076   0.058933   0.812503   x
            x  Al               32         0.819946   0.059404   0.814090   x
            x  Al               33         0.328878   0.183249   0.934615   x
            x  Al               34         0.056120   0.058343   0.808425   x
            x  Al               35         0.192520   0.190654   0.805024   x
            x  Al               36         0.321910   0.935690   0.939183   x
            x  Al               37         0.192758   0.929936   0.805321   x
            x  Al               38         0.318558   0.689590   0.944152   x
            x  Al               39         0.074708   0.687197   0.929726   x
            x  Al               40         0.197370   0.186624   0.572013   x
            x  Al               41         0.066197   0.807053   0.566083   x
            x  Al               42         0.325685   0.685629   0.688393   x
            x  Al               43         0.192983   0.670139   0.563440   x
            x  Al               44         0.325077   0.427603   0.687865   x
            x  Al               45         0.327575   0.555991   0.819333   x
            x  Al               46         0.198344   0.432146   0.547093   x
            x  Al               47         0.065857   0.435116   0.684587   x
            x  Al               48         0.317873   0.059846   0.311656   x
            x  Al               49         0.441057   0.056806   0.445010   x
            x  Al               50         0.185895   0.054370   0.184724   x
            x  Al               51         0.066176   0.182490   0.440917   x
            x  Al               52         0.433957   0.815759   0.439894   x
            x  Al               53         0.069835   0.945629   0.441770   x
            x  Al               54         0.200714   0.809923   0.431818   x
            x  Al               55         0.432621   0.678647   0.311023   x
            x  Al               56         0.437487   0.432531   0.545587   x
            x  Al               57         0.193424   0.425559   0.319511   x
            x  Al               58         0.187322   0.186967   0.058296   x
            x  Al               59         0.434530   0.817002   0.185162   x
            x  Al               60         0.191746   0.812308   0.187225   x
            x  Al               61         0.192085   0.426494   0.056749   x
            x  Al               62         0.191221   0.427430   0.822160   x
            x  Al               63         0.188982   0.565223   0.186225   x
            x  Ni                1         0.566321   0.431773   0.190715   x
            x  Ni                2         0.694043   0.308250   0.188475   x
            x  Ni                3         0.692560   0.433806   0.064401   x
            x  Ni                4         0.818093   0.433913   0.187950   x
            x  Ni                5         0.942854   0.309435   0.187425   x
            x  Ni                6         0.942452   0.434351   0.062638   x
            x  Ni                7         0.564277   0.687740   0.191778   x
            x  Ni                8         0.692803   0.559064   0.188563   x
            x  Ni                9         0.692862   0.682743   0.063979   x
            x  Ni               10         0.818698   0.683407   0.187582   x
            x  Ni               11         0.942583   0.558775   0.187658   x
            x  Ni               12         0.942729   0.683088   0.062491   x
            x  Ni               13         0.569262   0.932758   0.185234   x
            x  Ni               14         0.695657   0.809094   0.186540   x
            x  Ni               15         0.695864   0.934394   0.061263   x
            x  Ni               16         0.820126   0.933822   0.186388   x
            x  Ni               17         0.943013   0.808303   0.187067   x
            x  Ni               18         0.943381   0.933395   0.061954   x
            x  Ni               19         0.568782   0.183163   0.187736   x
            x  Ni               20         0.696104   0.058624   0.185898   x
            x  Ni               21         0.694106   0.184485   0.062390   x
            x  Ni               22         0.819326   0.184130   0.186962   x
            x  Ni               23         0.943453   0.058985   0.186853   x
            x  Ni               24         0.943187   0.184747   0.062219   x
            x  Ni               25         0.568753   0.432230   0.437732   x
            x  Ni               26         0.694951   0.306636   0.436531   x
            x  Ni               27         0.694414   0.432190   0.313251   x
            x  Ni               28         0.818326   0.433907   0.437613   x
            x  Ni               29         0.942757   0.309254   0.438057   x
            x  Ni               30         0.942485   0.434207   0.312803   x
            x  Ni               31         0.564630   0.689452   0.433022   x
            x  Ni               32         0.693884   0.560203   0.436676   x
            x  Ni               33         0.694222   0.684646   0.312471   x
            x  Ni               34         0.819019   0.684268   0.437537   x
            x  Ni               35         0.942427   0.559061   0.437932   x
            x  Ni               36         0.942995   0.683716   0.312640   x
            x  Ni               37         0.568768   0.935363   0.440248   x
            x  Ni               38         0.695593   0.810245   0.438395   x
            x  Ni               39         0.697776   0.935199   0.312224   x
            x  Ni               40         0.820655   0.933749   0.438365   x
            x  Ni               41         0.943395   0.808516   0.438122   x
            x  Ni               42         0.943420   0.933542   0.312395   x
            x  Ni               43         0.569810   0.177370   0.437545   x
            x  Ni               44         0.696219   0.057442   0.438265   x
            x  Ni               45         0.695582   0.182484   0.312257   x
            x  Ni               46         0.820049   0.183145   0.437589   x
            x  Ni               47         0.943899   0.058680   0.438205   x
            x  Ni               48         0.943403   0.183993   0.312442   x
            x  Ni               49         0.565902   0.434249   0.680437   x
            x  Ni               50         0.694280   0.309714   0.687656   x
            x  Ni               51         0.693786   0.433946   0.561233   x
            x  Ni               52         0.817740   0.434590   0.687739   x
            x  Ni               53         0.942812   0.309961   0.688219   x
            x  Ni               54         0.942452   0.434476   0.562992   x
            x  Ni               55         0.567172   0.683824   0.688656   x
            x  Ni               56         0.692514   0.558860   0.687205   x
            x  Ni               57         0.694391   0.684933   0.562038   x
            x  Ni               58         0.818284   0.682875   0.688400   x
            x  Ni               59         0.942521   0.558850   0.688032   x
            x  Ni               60         0.942714   0.683484   0.563280   x
            x  Ni               61         0.570610   0.933064   0.690533   x
            x  Ni               62         0.695399   0.807910   0.690081   x
            x  Ni               63         0.697365   0.933449   0.564734   x
            x  Ni               64         0.820285   0.933067   0.689602   x
            x  Ni               65         0.943318   0.807863   0.688704   x
            x  Ni               66         0.943737   0.933322   0.563824   x
            x  Ni               67         0.571004   0.183586   0.688790   x
            x  Ni               68         0.697676   0.058637   0.690688   x
            x  Ni               69         0.697803   0.182477   0.563328   x
            x  Ni               70         0.819700   0.184838   0.689223   x
            x  Ni               71         0.943580   0.058964   0.688819   x
            x  Ni               72         0.942916   0.184259   0.563498   x
            x  Ni               73         0.567338   0.434227   0.940259   x
            x  Ni               74         0.692483   0.309766   0.938378   x
            x  Ni               75         0.690879   0.434731   0.811890   x
            x  Ni               76         0.816933   0.434354   0.937925   x
            x  Ni               77         0.942814   0.310061   0.937682   x
            x  Ni               78         0.942525   0.434551   0.812977   x
            x  Ni               79         0.567598   0.683416   0.938652   x
            x  Ni               80         0.691808   0.558282   0.938813   x
            x  Ni               81         0.692946   0.682278   0.813312   x
            x  Ni               82         0.817798   0.682299   0.938118   x
            x  Ni               83         0.942485   0.558532   0.937890   x
            x  Ni               84         0.942797   0.682769   0.813198   x
            x  Ni               85         0.569132   0.934441   0.936820   x
            x  Ni               86         0.695035   0.807910   0.937022   x
            x  Ni               87         0.695599   0.933327   0.813987   x
            x  Ni               88         0.819613   0.933675   0.937532   x
            x  Ni               89         0.942999   0.807811   0.937773   x
            x  Ni               90         0.943784   0.933229   0.813425   x
            x  Ni               91         0.568109   0.183808   0.937787   x
[...]
            Ni 43  -- Ni 166                -0.01         0.00          2.59102
             Al 3  -- Ni 80                  0.20         0.00          2.59108
             Al 25 -- Ni 73                  0.20         0.00          2.59137
            Ni 49  -- Ni 174                 0.03         0.00          2.59151
            Ni 107 -- Ni 108                 0.04         0.00          2.59168
             Al 19 -- Ni 25                  0.20         0.00          2.59180
            Ni 110 -- Ni 112                 0.05        -0.00          2.59215
             Al 51 -- Ni 145                 0.19        -0.00          2.59218
            Ni 116 -- Ni 118                 0.02        -0.00          2.59222
             Al 14 -- Ni 16                  0.19         0.00          2.59236
            Ni 13  -- Ni 120                 0.04         0.00          2.59240
             Al 15 -- Ni 44                  0.20        -0.00          2.59349
             Al 34 -- Ni 162                 0.16        -0.00          2.59350
            Ni 59  -- Ni 78                 -0.00         0.00          2.59350
             Al 9  -- Ni 43                  0.21        -0.00          2.59358
            Ni 37  -- Ni 139                -0.02         0.00          2.59369
            Ni 101 -- Ni 144                 0.09         0.00          2.59375
            Ni 67  -- Ni 165                 0.03         0.00          2.59384
             Al 17 -- Ni 126                 0.15         0.00          2.59395
             Al 27 -- Ni 182                 0.17         0.00          2.59397
            Ni 143 -- Ni 167                 0.01        -0.00          2.59409
             Al 1  -- Ni 101                 0.17         0.00          2.59417
             Al 60 -- Ni 106                 0.19        -0.00          2.59423
            Ni 150 -- Ni 178                 0.07        -0.00          2.59442
             Al 55 -- Ni 31                  0.18        -0.00          2.59445
            Ni 25  -- Ni 27                  0.06         0.00          2.59453
             Al 27 -- Ni 80                  0.19         0.00          2.59528
             Al 23 -- Ni 165                 0.18         0.00          2.59534
            Ni 35  -- Ni 129                 0.09        -0.00          2.59552
             Al 47 -- Ni 150                 0.22         0.00          2.59555
            Ni 13  -- Ni 139                -0.01         0.00          2.59561
            Ni 29  -- Ni 72                  0.01         0.00          2.59562
            Ni 121 -- Ni 191                 0.00         0.00          2.59566
             Al 46 -- Ni 170                 0.17         0.00          2.59574
            Ni 37  -- Ni 159                -0.02         0.00          2.59589
             Al 43 -- Ni 155                 0.19        -0.00          2.59621
             Al 60 -- Ni 113                 0.19        -0.00          2.59631
             Al 11 -- Ni 107                 0.17        -0.00          2.59637
             Al 36 -- Ni 190                 0.17        -0.00          2.59652
            Ni 133 -- Ni 160                -0.03        -0.00          2.59657
            Ni 47  -- Ni 48                 -0.01         0.00          2.59657
            Ni 147 -- Ni 170                -0.03         0.00          2.59671
             Al 22 -- Ni 62                  0.19         0.00          2.59687
            Ni 155 -- Ni 156                 0.06         0.00          2.59709
            Ni 71  -- Ni 96                  0.01         0.00          2.59713
             Al 46 -- Ni 149                 0.13         0.00          2.59717
             Al 38 -- Ni 181                 0.18        -0.00          2.59743
            Ni 111 -- Ni 186                 0.08        -0.00          2.59775
            Ni 13  -- Ni 20                  0.06         0.00          2.59788
             Al 15 -- Ni 37                  0.19        -0.00          2.59815
            Ni 55  -- Ni 151                 0.08         0.00          2.59816
            Ni 25  -- Ni 134                -0.00         0.00          2.59817
            Ni 99  -- Ni 169                 0.01        -0.00          2.59818
            Ni 41  -- Ni 66                 -0.03         0.00          2.59819
            Ni 98  -- Ni 99                  0.01        -0.00          2.59837
            Ni 152 -- Ni 158                 0.02         0.00          2.59983
            Ni 174 -- Ni 182                -0.00         0.00          2.59995
             Al 40 -- Ni 145                 0.16        -0.00          2.60037
             Al 41 -- Ni 129                 0.20         0.00          2.60052
             Al 11 -- Ni 7                   0.19        -0.00          2.60072
            Ni 111 -- Ni 115                 0.04        -0.00          2.60100
            Ni 112 -- Ni 122                 0.11         0.00          2.60100
            Ni 117 -- Ni 122                 0.04        -0.00          2.60125
            Ni 95  -- Ni 96                  0.01        -0.00          2.60148
             Al 24 -- Ni 46                  0.18         0.00          2.60162
            Ni 100 -- Ni 103                 0.09        -0.00          2.60187
            Ni 156 -- Ni 167                 0.12        -0.00          2.60205
             Al 51 -- Ni 142                 0.17        -0.00          2.60206
            Ni 155 -- Ni 157                 0.07        -0.00          2.60253
            Ni 53  -- Ni 78                  0.01         0.00          2.60295
            Ni 169 -- Ni 171                -0.00        -0.00          2.60316
             Al 48 -- Ni 141                 0.17         0.00          2.60316
             Al 58 -- Ni 117                 0.15        -0.00          2.60339
             Al 11 -- Ni 33                  0.19         0.00          2.60345
             Al 43 -- Ni 150                 0.17         0.00          2.60354
             Al 38 -- Ni 188                 0.17        -0.00          2.60354
             Al 9  -- Ni 127                 0.16        -0.00          2.60378
             Al 16 -- Ni 40                  0.18         0.00          2.60435
            Ni 129 -- Ni 149                 0.08        -0.00          2.60455
            Ni 55  -- Ni 57                  0.03         0.00          2.60467
            Ni 41  -- Ni 42                  0.03         0.00          2.60497
            Ni 142 -- Ni 143                 0.03        -0.00          2.60535
            Ni 53  -- Ni 54                 -0.00         0.00          2.60543
             Al 45 -- Ni 150                 0.15         0.00          2.60562
            Ni 146 -- Ni 174                 0.01         0.00          2.60578
            Ni 13  -- Ni 39                  0.01         0.00          2.60630
            Ni 54  -- Ni 59                 -0.00         0.00          2.60694
            Ni 170 -- Ni 171                -0.02        -0.00          2.60788
             Al 38 -- Ni 177                 0.17        -0.00          2.60798
             Al 27 -- Ni 151                 0.17         0.00          2.60865
            Ni 71  -- Ni 90                  0.02         0.00          2.60877
            Ni 169 -- Ni 172                 0.01        -0.00          2.60921
            Ni 138 -- Ni 139                -0.02         0.00          2.60922
            Ni 113 -- Ni 139                 0.01        -0.00          2.60935
            Ni 172 -- Ni 177                -0.02        -0.00          2.60976
            Ni 152 -- Ni 153                 0.12         0.00          2.60983
            Ni 47  -- Ni 163                 0.06        -0.00          2.61073
            Ni 1   -- Ni 8                   0.03        -0.00          2.61079
            Ni 138 -- Ni 159                 0.02         0.00          2.61081
             Al 61 -- Ni 104                 0.15         0.00          2.61083
             Al 61 -- Ni 100                 0.18        -0.00          2.61108
            Ni 161 -- Ni 162                -0.01        -0.00          2.61135
            Ni 173 -- Ni 192                -0.00         0.00          2.61135
            Ni 60  -- Ni 65                  0.01         0.00          2.61163
             Al 25 -- Ni 49                  0.19        -0.00          2.61187
            Ni 150 -- Ni 153                -0.01        -0.00          2.61203
            Ni 129 -- Ni 132                 0.11        -0.00          2.61235
             Al 34 -- Ni 122                 0.16        -0.00          2.61290
             Al 63 -- Ni 100                 0.17        -0.00          2.61317
             Al 58 -- Ni 119                 0.17        -0.00          2.61323
             Al 53 -- Ni 137                 0.18         0.00          2.61343
             Al 48 -- Ni 120                 0.18        -0.00          2.61367
            Ni 117 -- Ni 191                 0.08        -0.00          2.61372
            Ni 102 -- Ni 109                 0.00        -0.00          2.61381
            Ni 138 -- Ni 160                 0.05        -0.00          2.61491
            Ni 65  -- Ni 148                 0.04         0.00          2.61492
             Al 44 -- Al 56                  0.30        -0.00          2.61492
            Ni 168 -- Ni 177                 0.04        -0.00          2.61580
            Ni 121 -- Ni 173                 0.01         0.00          2.61608
             Al 51 -- Ni 163                 0.16        -0.00          2.61609
            Ni 158 -- Ni 181                -0.01         0.00          2.61613
            Ni 140 -- Ni 141                 0.07        -0.00          2.61666
            Ni 152 -- Ni 160                 0.02        -0.00          2.61679
             Al 11 -- Ni 31                  0.19        -0.00          2.61706
            Ni 178 -- Ni 185                 0.08        -0.00          2.61719
             Al 35 -- Ni 122                 0.18         0.00          2.61726
            Ni 110 -- Ni 118                 0.04        -0.00          2.61761
             Al 9  -- Ni 144                 0.18         0.00          2.61786
            Ni 1   -- Ni 127                 0.02        -0.00          2.61789
            Ni 115 -- Ni 117                 0.09        -0.00          2.61812
            Ni 151 -- Ni 152                 0.04         0.00          2.61824
            Ni 26  -- Ni 43                  0.05         0.00          2.61847
             Al 21 -- Ni 159                 0.15         0.00          2.61858
             Al 50 -- Ni 117                 0.15        -0.00          2.61904
            Ni 159 -- Ni 160                 0.09        -0.00          2.61939
            Ni 178 -- Ni 179                 0.06        -0.00          2.61974
             Al 11 -- Ni 127                 0.15        -0.00          2.62032
            Ni 178 -- Ni 184                 0.03         0.00          2.62148
            Ni 42  -- Ni 47                 -0.01         0.00          2.62165
            Ni 65  -- Ni 66                  0.01         0.00          2.62175
             Al 58 -- Ni 122                 0.17         0.00          2.62188
             Al 27 -- Ni 49                  0.20        -0.00          2.62190
             Al 21 -- Ni 31                  0.20         0.00          2.62252
            Ni 114 -- Ni 138                 0.01        -0.00          2.62282
             Al 38 -- Ni 178                 0.16         0.00          2.62375
            Ni 102 -- Ni 108                 0.10        -0.00          2.62423
            Ni 158 -- Ni 160                 0.11         0.00          2.62424
            Ni 37  -- Ni 39                  0.01         0.00          2.62515
             Al 19 -- Ni 151                 0.17         0.00          2.62542
             Al 36 -- Ni 184                 0.18        -0.00          2.62577
            Ni 136 -- Ni 141                 0.01        -0.00          2.62595
             Al 38 -- Ni 182                 0.16        -0.00          2.62607
             Al 23 -- Ni 166                 0.15         0.00          2.62624
             Al 36 -- Ni 122                 0.17        -0.00          2.62708
            Ni 25  -- Ni 126                -0.00         0.00          2.62796
             Al 46 -- Ni 145                 0.11        -0.00          2.62817
             Al 19 -- Ni 31                  0.17        -0.00          2.62820
             Al 5  -- Ni 7                   0.18        -0.00          2.62899
             Al 52 -- Ni 37                  0.15        -0.00          2.62971
             Al 5  -- Ni 115                 0.15         0.00          2.63035
            Ni 154 -- Ni 155                 0.06        -0.00          2.63207
             Al 57 -- Ni 97                  0.14         0.00          2.63225
            Ni 155 -- Ni 188                 0.03         0.00          2.63257
            Ni 156 -- Ni 157                 0.12         0.00          2.63377
             Al 40 -- Ni 143                 0.16        -0.00          2.63420
             Al 39 -- Ni 178                 0.18         0.00          2.63465
            Ni 108 -- Ni 111                 0.02        -0.00          2.63558
            Ni 123 -- Ni 124                 0.01        -0.00          2.63571
            Ni 170 -- Ni 175                -0.04         0.00          2.63885
             Al 37 -- Ni 190                 0.15        -0.00          2.63895
            Ni 114 -- Ni 133                -0.03        -0.00          2.64033
            Ni 156 -- Ni 162                 0.13        -0.00          2.64070
            Ni 162 -- Ni 164                 0.01        -0.00          2.64087
            Ni 49  -- Ni 75                  0.05         0.00          2.64088
            Ni 151 -- Ni 181                -0.01         0.00          2.64503
            Ni 7   -- Ni 107                 0.01        -0.00          2.64521
             Al 3  -- Ni 7                   0.18        -0.00          2.64525
             Al 50 -- Al 58                  0.24        -0.00          2.64577
             Al 13 -- Ni 139                 0.16         0.00          2.64646
            Ni 7   -- Ni 8                   0.05        -0.00          2.64703
             Al 59 -- Ni 7                   0.15        -0.00          2.64818
             Al 48 -- Al 50                  0.25        -0.00          2.64855
             Al 23 -- Ni 159                 0.13         0.00          2.64892
             Al 42 -- Ni 153                 0.15         0.00          2.64912
             Al 33 -- Ni 122                 0.15         0.00          2.65045
             Al 43 -- Ni 160                 0.15        -0.00          2.65139
             Al 35 -- Ni 189                 0.15         0.00          2.65161
             Al 44 -- Ni 153                 0.12         0.00          2.65183
             Al 35 -- Ni 190                 0.13        -0.00          2.65202
             Al 37 -- Ni 122                 0.15        -0.00          2.65344
             Al 52 -- Ni 31                  0.15        -0.00          2.65501
             Al 48 -- Al 49                  0.26        -0.00          2.65543
            Ni 106 -- Ni 135                -0.01        -0.00          2.65675
            Ni 31  -- Ni 32                  0.04        -0.00          2.65715
             Al 57 -- Ni 132                 0.11         0.00          2.65736
            Ni 161 -- Ni 170                 0.04        -0.00          2.66190
            Ni 7   -- Ni 9                   0.06        -0.00          2.66338
             Al 38 -- Al 45                  0.23        -0.00          2.66403
             Al 42 -- Al 43                  0.25        -0.00          2.66727
             Al 50 -- Ni 119                 0.13        -0.00          2.66847
             Al 23 -- Al 49                  0.24         0.00          2.67010
            Ni 31  -- Ni 57                  0.05         0.00          2.67107
            Ni 148 -- Ni 150                 0.08        -0.00          2.67181
            Ni 149 -- Ni 150                 0.02        -0.00          2.67996
            Ni 168 -- Ni 169                 0.02        -0.00          2.68291
             Al 46 -- Ni 150                 0.11         0.00          2.69270
             Al 44 -- Al 45                  0.21         0.00          2.69972
             Al 5  -- Al 59                  0.20        -0.00          2.70949
             Al 45 -- Al 62                  0.18         0.00          2.71624
             Al 42 -- Al 45                  0.21        -0.00          2.71691
            Ni 164 -- Ni 170                 0.03         0.00          2.71889
             Al 11 -- Al 55                  0.20        -0.00          2.72085
             Al 36 -- Al 37                  0.22        -0.00          2.72168
             Al 56 -- Ni 146                 0.07        -0.00          2.72829
             Al 34 -- Al 35                  0.20        -0.00          2.72903
             Al 55 -- Al 59                  0.21        -0.00          2.72975
             Al 56 -- Ni 151                 0.08         0.00          2.73105
             Al 21 -- Al 52                  0.20         0.00          2.73894
             Al 33 -- Al 58                  0.20         0.00          2.74103
             Al 34 -- Al 37                  0.19        -0.00          2.74393
             Al 44 -- Al 46                  0.21        -0.00          2.74568
             Al 61 -- Al 63                  0.20        -0.00          2.74640
             Al 41 -- Al 43                  0.18        -0.00          2.74834
             Al 33 -- Al 35                  0.20         0.00          2.75073
             Al 52 -- Al 55                  0.20        -0.00          2.75371
             Al 17 -- Al 56                  0.17         0.00          2.75696
             Al 56 -- Ni 49                  0.11        -0.00          2.75766
             Al 47 -- Al 62                  0.17        -0.00          2.76646
             Al 53 -- Al 54                  0.18        -0.00          2.77585
             Al 40 -- Al 51                  0.20        -0.00          2.77680
             Al 15 -- Al 49                  0.19         0.00          2.77782
             Al 19 -- Al 56                  0.17         0.00          2.77886
             Al 42 -- Ni 150                 0.11         0.00          2.78833
             Al 43 -- Al 54                  0.16        -0.00          2.78883
             Al 57 -- Al 63                  0.15        -0.00          2.79939
             Al 41 -- Al 53                  0.17         0.00          2.80123
             Al 44 -- Al 62                  0.15         0.00          2.81769
             Al 13 -- Al 59                  0.16         0.00          2.82915
             Al 13 -- Al 52                  0.17         0.00          2.84188
             Al 41 -- Al 54                  0.12         0.00          2.87762
             Al 46 -- Al 47                  0.13        -0.00          2.88115
             Al 13 -- Al 55                  0.08        -0.00          2.94623
================================================================================
 

Writing analysis data to castep.castep_bin

Writing model to castep.check
 
 A BibTeX formatted list of references used in this run has been written to 
 castep.bib
 
Initialisation time =     13.61 s
Calculation time    =  24470.49 s
Finalisation time   =     10.91 s
Total time          =  24495.02 s
Peak Memory Use     = 2842380 kB
  
Overall parallel efficiency rating: Good (70%)                                  
  
Data was distributed by:-
G-vector (48-way); efficiency rating: Good (71%)                                
