 +-------------------------------------------------+
 |                                                 |
 |      CCC   AA    SSS  TTTTT  EEEEE  PPPP        |
 |     C     A  A  S       T    E      P   P       |
 |     C     AAAA   SS     T    EEE    PPPP        |
 |     C     A  A     S    T    E      P           |
 |      CCC  A  A  SSS     T    EEEEE  P           |
 |                                                 |
 +-------------------------------------------------+
 |                                                 |
 | Welcome to Academic Release CASTEP version 20.11|          
 | Ab Initio Total Energy Program                  |
 |                                                 |
 | Authors:                                        |
 | M. Segall, M. Probert, C. Pickard, P. Hasnip,   |
 | S. Clark, K. Refson, J. R. Yates, M. Payne      |
 |                                                 |
 | Contributors:                                   |
 | P. Lindan, P. Haynes, J. White, V. Milman,      |
 | N. Govind, M. Gibson, P. Tulip, V. Cocula,      |
 | B. Montanari, D. Quigley, M. Glover,            |
 | L. Bernasconi, A. Perlov, M. Plummer,           |
 | E. McNellis, J. Meyer, J. Gale, D. Jochym       |
 | J. Aarons, B. Walker, R. Gillen, D. Jones       |
 | T. Green, I. J. Bush, C. J. Armstrong,          |
 | E. J. Higgins, E. L. Brown, M. S. McFly,        |
 | J. Wilkins, B-C. Shih, P. J. P. Byrne,          |
 | R. J. Maurer, J. C. Womack, J. Dziedzic,        |
 | J. R. Kermode, A. Bartok-Partay                 |
 |                                                 |
 | Copyright (c) 2000 - 2020                       |
 |                                                 |
 |     Distributed under license from Cambridge    |
 |     Enterprise for academic use only.           |
 |                                                 |
 | Please cite                                     |
 |                                                 |
 |     "First principles methods using CASTEP"     |
 |                                                 |
 |         Zeitschrift fuer Kristallographie       |
 |           220(5-6) pp. 567-570 (2005)           |
 |                                                 |
 | S. J. Clark, M. D. Segall, C. J. Pickard,       |
 | P. J. Hasnip, M. J. Probert, K. Refson,         |
 | M. C. Payne                                     |
 |                                                 |
 |       in all publications arising from          |
 |              your use of CASTEP                 |
 |                                                 |
 +-------------------------------------------------+
 |                                                 |
 |              http://www.castep.org              |
 |                                                 |
 +-------------------------------------------------+
 
 
 
 Compiled for linux_x86_64_ifort on Wed, 22 Sep 2021 16:00:02 +0100
 from code version e772bf432+  HEAD  Sat Apr 3 17:41:32 2021 +0100
 Compiler: Intel Fortran 19.1.3.304; Optimisation: fast
 MATHLIBS: Intel MKL(2020.0.4) (LAPACK version 3.8.0)
 FFT Lib : mkl
 Fundamental constants values: CODATA 2014
 
 Run started: Tue, 11 Oct 2022 14:26:44 +0100
 
 Atomic calculation performed for Al: 1s2 2s2 2p6 3s2 3p1
 
 Converged in 52 iterations to an ae energy of -6606.982 eV
 
   ============================================================                
   | Pseudopotential Report - Date of generation 11-10-2022   |                
   ------------------------------------------------------------                
   | Element: Al Ionic charge:  3.00 Level of theory: RPBE    |                
   | Atomic Solver: Koelling-Harmon                           |                
   |                                                          |                
   |               Reference Electronic Structure             |                
   |         Orbital         Occupation         Energy        |                
   |            3s              2.000           -0.284        |                
   |            3p              1.000           -0.100        |                
   |                                                          |                
   |                 Pseudopotential Definition               |                
   |        Beta     l      e      Rc     scheme   norm       |                
   |          1      0   -0.284   2.192     qc      0         |                
   |          2      0    0.250   2.192     qc      0         |                
   |          3      1   -0.100   2.192     qc      0         |                
   |          4      1    0.250   2.192     qc      0         |                
   |          5      2    0.000   2.000     qc      0         |                
   |          6      2    0.250   2.000     qc      0         |                
   |         loc     3    0.000   2.192     pn      0         |                
   |                                                          |                
   | Augmentation charge Rinner = 1.398                       |                
   | Partial core correction Rc = 1.398                       |                
   ------------------------------------------------------------                
   | "3|2.2|2.2|1.4|4|5|5|30:31:32U2U2"                       |                
   ------------------------------------------------------------                
   |      Author: Chris J. Pickard, Cambridge University      |                
   ============================================================                
 
 Atomic calculation performed for Ni: 1s2 2s2 2p6 3s2 3p6 3d8 4s2
 
 Converged in 109 iterations to an ae energy of -41381.414 eV
 
   ============================================================                
   | Pseudopotential Report - Date of generation 11-10-2022   |                
   ------------------------------------------------------------                
   | Element: Ni Ionic charge: 10.00 Level of theory: RPBE    |                
   | Atomic Solver: Koelling-Harmon                           |                
   |                                                          |                
   |               Reference Electronic Structure             |                
   |         Orbital         Occupation         Energy        |                
   |            3d              8.000           -0.324        |                
   |            4s              2.000           -0.204        |                
   |                                                          |                
   |                 Pseudopotential Definition               |                
   |        Beta     l      e      Rc     scheme   norm       |                
   |          1      0   -0.204   2.401     qc      0         |                
   |          2      0    0.250   2.401     qc      0         |                
   |          3      1    0.000   2.401     qc      0         |                
   |          4      1    0.250   2.401     qc      0         |                
   |          5      2   -0.324   1.999     qc      0         |                
   |          6      2    0.250   1.999     qc      0         |                
   |         loc     3    0.000   2.401     pn      0         |                
   |                                                          |                
   | Augmentation charge Rinner = 1.001                       |                
   | Partial core correction Rc = 1.001                       |                
   ------------------------------------------------------------                
   | "3|2.4|2.4|1.0|8|9|10|40:41:32U2U2(qc=5.5)"              |                
   ------------------------------------------------------------                
   |      Author: Chris J. Pickard, Cambridge University      |                
   ============================================================                
 
 Pseudo atomic calculation performed for Al 3s2 3p1
 
 Converged in 13 iterations to a total energy of -107.6592 eV
 
 Pseudo atomic calculation performed for Ni 3d8 4s2
 
 Converged in 41 iterations to a total energy of -1369.7890 eV
 Calculation parallelised over 48 processes.
 Data is distributed by G-vector(48-way)

 ************************************ Title ************************************
 

 ***************************** General Parameters ******************************
  
 output verbosity                               : normal  (1)
 write checkpoint data to                       : castep.check
 type of calculation                            : geometry optimization
 stress calculation                             : off
 density difference calculation                 : off
 electron localisation func (ELF) calculation   : off
 Hirshfeld analysis                             : off
 molecular orbital projected DOS                : off
 deltaSCF calculation                           : off
 unlimited duration calculation
 timing information                             : on
 memory usage estimate                          : on
 write extra output files                       : on
 write final potential to formatted file        : off
 write final density to formatted file          : off
 write BibTeX reference list                    : on
 write OTFG pseudopotential files               : on
 write electrostatic potential file             : on
 write bands file                               : on
 checkpoint writing                             : both castep_bin and check files
  
 output         length unit                     : A
 output           mass unit                     : amu
 output           time unit                     : ps
 output         charge unit                     : e
 output           spin unit                     : hbar/2
 output         energy unit                     : eV
 output          force unit                     : eV/A
 output       velocity unit                     : A/ps
 output       pressure unit                     : GPa
 output     inv_length unit                     : 1/A
 output      frequency unit                     : cm-1
 output force constant unit                     : eV/A**2
 output         volume unit                     : A**3
 output   IR intensity unit                     : (D/A)**2/amu
 output         dipole unit                     : D
 output         efield unit                     : eV/A/e
 output        entropy unit                     : J/mol/K
 output    efield chi2 unit                     : pm/V
  
 wavefunctions paging                           : none
 random number generator seed                   : randomised (142644462)
 data distribution                              : optimal for this architecture
 optimization strategy                          : maximize speed(+++)

 *********************** Exchange-Correlation Parameters ***********************
  
 using functional                               : revised Perdew Burke Ernzerhof
 relativistic treatment                         : Koelling-Harmon
 DFT+D: Semi-empirical dispersion correction    : off

 ************************* Pseudopotential Parameters **************************
  
 pseudopotential representation                 : reciprocal space
 <beta|phi> representation                      : reciprocal space
 spin-orbit coupling                            : off

 **************************** Basis Set Parameters *****************************
  
 plane wave basis set cut-off                   :   900.0000   eV
 size of standard grid                          :     1.7500
 size of   fine   gmax                          :    26.8966   1/A
 finite basis set correction                    : automatic
 number of sample energies                      :          3
           sample  spacing                      :     5.0000   eV

 **************************** Electronic Parameters ****************************
  
 number of  electrons                           :  2112.    
 net charge of system                           :  0.000    
 treating system as non-spin-polarized
 number of bands                                :       1168

 ********************* Electronic Minimization Parameters **********************
  
 Method: Treating system as metallic with density mixing treatment of electrons,
         and number of  SD  steps               :          1
         and number of  CG  steps               :          4
  
 total energy / atom convergence tol.           : 0.1000E-05   eV
 eigen-energy convergence tolerance             : 0.2192E-06   eV
 max force / atom convergence tol.              : ignored
 convergence tolerance window                   :          3   cycles
 max. number of SCF cycles                      :        360
 number of fixed-spin iterations                :         10
 smearing scheme                                : Gaussian
 smearing width                                 : 0.2000       eV
 Fermi energy convergence tolerance             : 0.2721E-13   eV
 periodic dipole correction                     : NONE

 ************************** Density Mixing Parameters **************************
  
 density-mixing scheme                          : Pulay
 max. length of mixing history                  :         20
 charge density mixing amplitude                : 0.8000    
 cut-off energy for mixing                      :  900.0       eV

 *********************** Population Analysis Parameters ************************
  
 Population analysis with cutoff                :  3.000       A
 Population analysis output                     : summary and pdos components

 ********************** Geometry Optimization Parameters ***********************
  
 optimization method                            : LBFGS
 max. no. of LBFGS updates                      : unbounded
 preconditioned LBFGS is activated
 preconditioner type                            : EXP
     stabilization constant                     :     0.1000
     parameter A                                :     3.0000
     nearest neighbor distance                  : automatic
     cut-off distance                           : automatic
     parameter mu                               : automatic
 variable cell method                           : fixed basis quality
 max. number of steps                           :         30
 estimated bulk modulus                         :  500.0       GPa
 estimated <frequency>                          :  1668.       cm-1
 geom line minimiser                            : on
 with line minimiser tolerance                  :     0.4000
 total energy convergence tolerance             : 0.2000E-04   eV/atom
        max ionic |force| tolerance             : 0.5000E-01   eV/A
 max ionic |displacement| tolerance             : 0.1000E-02   A
   max |stress component| tolerance             : 0.1000       GPa
 convergence tolerance window                   :          2   steps
 backup results every                           :          5   steps
 write geom trajectory file                     : on

 *******************************************************************************
  
 
                           -------------------------------
                                      Unit Cell
                           -------------------------------
        Real Lattice(A)                      Reciprocal Lattice(1/A)
    14.4528000     0.0000000     0.0000000        0.434738273   0.000000000   0.000000000
     0.0000000    14.4528000     0.0000000        0.000000000   0.434738273   0.000000000
     0.0000000     0.0000000    14.4528000        0.000000000   0.000000000   0.434738273
 
                       Lattice parameters(A)       Cell Angles
                    a =     14.452800          alpha =   90.000000
                    b =     14.452800          beta  =   90.000000
                    c =     14.452800          gamma =   90.000000
 
                       Current cell volume =          3018.950406       A**3
                                   density =             4.304791   AMU/A**3
                                           =             7.148274     g/cm^3
 
                           -------------------------------
                                     Cell Contents
                           -------------------------------
                         Total number of ions in cell =  256
                      Total number of species in cell =    2
                        Max number of any one species =  192
 
            xxxxxxxxxxxxxxxxxxxxxxxxxxxxxxxxxxxxxxxxxxxxxxxxxxxxxxxxxxxx
            x  Element    Atom        Fractional coordinates of atoms  x
            x            Number           u          v          w      x
            x----------------------------------------------------------x
            x  Al           1         0.937500   0.937500   0.812500   x 
            x  Al           2         0.812500   0.937500   0.937500   x 
            x  Al           3         0.312500   0.937500   0.937500   x 
            x  Al           4         0.062500   0.937500   0.937500   x 
            x  Al           5         0.812500   0.687500   0.937500   x 
            x  Al           6         0.687500   0.562500   0.937500   x 
            x  Al           7         0.437500   0.562500   0.937500   x 
            x  Al           8         0.312500   0.687500   0.937500   x 
            x  Al           9         0.187500   0.562500   0.937500   x 
            x  Al          10         0.812500   0.437500   0.937500   x 
            x  Al          11         0.687500   0.312500   0.937500   x 
            x  Al          12         0.437500   0.312500   0.937500   x 
            x  Al          13         0.937500   0.062500   0.937500   x 
            x  Al          14         0.812500   0.187500   0.937500   x 
            x  Al          15         0.437500   0.187500   0.812500   x 
            x  Al          16         0.437500   0.062500   0.937500   x 
            x  Al          17         0.062500   0.062500   0.812500   x 
            x  Al          18         0.812500   0.937500   0.687500   x 
            x  Al          19         0.562500   0.937500   0.687500   x 
            x  Al          20         0.312500   0.812500   0.562500   x 
            x  Al          21         0.937500   0.687500   0.562500   x 
            x  Al          22         0.562500   0.562500   0.562500   x 
            x  Al          23         0.812500   0.312500   0.562500   x 
            x  Al          24         0.062500   0.437500   0.687500   x 
            x  Al          25         0.812500   0.062500   0.562500   x 
            x  Al          26         0.937500   0.187500   0.562500   x 
            x  Al          27         0.687500   0.062500   0.687500   x 
            x  Al          28         0.562500   0.187500   0.687500   x 
            x  Al          29         0.562500   0.812500   0.312500   x 
            x  Al          30         0.687500   0.812500   0.437500   x 
            x  Al          31         0.312500   0.812500   0.312500   x 
            x  Al          32         0.312500   0.937500   0.437500   x 
            x  Al          33         0.062500   0.812500   0.312500   x 
            x  Al          34         0.187500   0.812500   0.437500   x 
            x  Al          35         0.812500   0.562500   0.312500   x 
            x  Al          36         0.937500   0.562500   0.437500   x 
            x  Al          37         0.562500   0.562500   0.312500   x 
            x  Al          38         0.312500   0.687500   0.437500   x 
            x  Al          39         0.062500   0.562500   0.312500   x 
            x  Al          40         0.937500   0.437500   0.312500   x 
            x  Al          41         0.687500   0.312500   0.437500   x 
            x  Al          42         0.562500   0.437500   0.437500   x 
            x  Al          43         0.437500   0.437500   0.312500   x 
            x  Al          44         0.187500   0.437500   0.312500   x 
            x  Al          45         0.187500   0.312500   0.437500   x 
            x  Al          46         0.062500   0.437500   0.437500   x 
            x  Al          47         0.937500   0.187500   0.312500   x 
            x  Al          48         0.937500   0.062500   0.437500   x 
            x  Al          49         0.812500   0.187500   0.437500   x 
            x  Al          50         0.687500   0.062500   0.437500   x 
            x  Al          51         0.562500   0.812500   0.062500   x 
            x  Al          52         0.687500   0.937500   0.062500   x 
            x  Al          53         0.062500   0.937500   0.187500   x 
            x  Al          54         0.937500   0.687500   0.062500   x 
            x  Al          55         0.812500   0.687500   0.187500   x 
            x  Al          56         0.562500   0.562500   0.062500   x 
            x  Al          57         0.312500   0.687500   0.187500   x 
            x  Al          58         0.062500   0.687500   0.187500   x 
            x  Al          59         0.812500   0.437500   0.187500   x 
            x  Al          60         0.562500   0.437500   0.187500   x 
            x  Al          61         0.187500   0.312500   0.187500   x 
            x  Al          62         0.562500   0.062500   0.062500   x 
            x  Al          63         0.562500   0.187500   0.187500   x 
            x  Al          64         0.062500   0.062500   0.062500   x 
            x  Ni           1         0.062500   0.187500   0.187500   x 
            x  Ni           2         0.187500   0.062500   0.187500   x 
            x  Ni           3         0.187500   0.187500   0.062500   x 
            x  Ni           4         0.312500   0.187500   0.187500   x 
            x  Ni           5         0.437500   0.062500   0.187500   x 
            x  Ni           6         0.437500   0.187500   0.062500   x 
            x  Ni           7         0.312500   0.062500   0.062500   x 
            x  Ni           8         0.687500   0.062500   0.187500   x 
            x  Ni           9         0.687500   0.187500   0.062500   x 
            x  Ni          10         0.812500   0.187500   0.187500   x 
            x  Ni          11         0.937500   0.062500   0.187500   x 
            x  Ni          12         0.937500   0.187500   0.062500   x 
            x  Ni          13         0.812500   0.062500   0.062500   x 
            x  Ni          14         0.062500   0.437500   0.187500   x 
            x  Ni          15         0.187500   0.437500   0.062500   x 
            x  Ni          16         0.062500   0.312500   0.062500   x 
            x  Ni          17         0.312500   0.437500   0.187500   x 
            x  Ni          18         0.437500   0.312500   0.187500   x 
            x  Ni          19         0.437500   0.437500   0.062500   x 
            x  Ni          20         0.312500   0.312500   0.062500   x 
            x  Ni          21         0.687500   0.312500   0.187500   x 
            x  Ni          22         0.687500   0.437500   0.062500   x 
            x  Ni          23         0.562500   0.312500   0.062500   x 
            x  Ni          24         0.937500   0.312500   0.187500   x 
            x  Ni          25         0.937500   0.437500   0.062500   x 
            x  Ni          26         0.812500   0.312500   0.062500   x 
            x  Ni          27         0.187500   0.562500   0.187500   x 
            x  Ni          28         0.187500   0.687500   0.062500   x 
            x  Ni          29         0.062500   0.562500   0.062500   x 
            x  Ni          30         0.437500   0.562500   0.187500   x 
            x  Ni          31         0.437500   0.687500   0.062500   x 
            x  Ni          32         0.312500   0.562500   0.062500   x 
            x  Ni          33         0.562500   0.687500   0.187500   x 
            x  Ni          34         0.687500   0.562500   0.187500   x 
            x  Ni          35         0.687500   0.687500   0.062500   x 
            x  Ni          36         0.937500   0.562500   0.187500   x 
            x  Ni          37         0.812500   0.562500   0.062500   x 
            x  Ni          38         0.187500   0.812500   0.187500   x 
            x  Ni          39         0.187500   0.937500   0.062500   x 
            x  Ni          40         0.062500   0.812500   0.062500   x 
            x  Ni          41         0.312500   0.937500   0.187500   x 
            x  Ni          42         0.437500   0.812500   0.187500   x 
            x  Ni          43         0.437500   0.937500   0.062500   x 
            x  Ni          44         0.312500   0.812500   0.062500   x 
            x  Ni          45         0.562500   0.937500   0.187500   x 
            x  Ni          46         0.687500   0.812500   0.187500   x 
            x  Ni          47         0.812500   0.937500   0.187500   x 
            x  Ni          48         0.937500   0.812500   0.187500   x 
            x  Ni          49         0.937500   0.937500   0.062500   x 
            x  Ni          50         0.812500   0.812500   0.062500   x 
            x  Ni          51         0.062500   0.187500   0.437500   x 
            x  Ni          52         0.187500   0.062500   0.437500   x 
            x  Ni          53         0.187500   0.187500   0.312500   x 
            x  Ni          54         0.062500   0.062500   0.312500   x 
            x  Ni          55         0.312500   0.187500   0.437500   x 
            x  Ni          56         0.437500   0.062500   0.437500   x 
            x  Ni          57         0.437500   0.187500   0.312500   x 
            x  Ni          58         0.312500   0.062500   0.312500   x 
            x  Ni          59         0.562500   0.187500   0.437500   x 
            x  Ni          60         0.687500   0.187500   0.312500   x 
            x  Ni          61         0.562500   0.062500   0.312500   x 
            x  Ni          62         0.812500   0.062500   0.312500   x 
            x  Ni          63         0.062500   0.312500   0.312500   x 
            x  Ni          64         0.312500   0.437500   0.437500   x 
            x  Ni          65         0.437500   0.312500   0.437500   x 
            x  Ni          66         0.312500   0.312500   0.312500   x 
            x  Ni          67         0.687500   0.437500   0.312500   x 
            x  Ni          68         0.562500   0.312500   0.312500   x 
            x  Ni          69         0.812500   0.437500   0.437500   x 
            x  Ni          70         0.937500   0.312500   0.437500   x 
            x  Ni          71         0.812500   0.312500   0.312500   x 
            x  Ni          72         0.062500   0.687500   0.437500   x 
            x  Ni          73         0.187500   0.562500   0.437500   x 
            x  Ni          74         0.187500   0.687500   0.312500   x 
            x  Ni          75         0.437500   0.562500   0.437500   x 
            x  Ni          76         0.437500   0.687500   0.312500   x 
            x  Ni          77         0.312500   0.562500   0.312500   x 
            x  Ni          78         0.562500   0.687500   0.437500   x 
            x  Ni          79         0.687500   0.562500   0.437500   x 
            x  Ni          80         0.687500   0.687500   0.312500   x 
            x  Ni          81         0.812500   0.687500   0.437500   x 
            x  Ni          82         0.937500   0.687500   0.312500   x 
            x  Ni          83         0.062500   0.937500   0.437500   x 
            x  Ni          84         0.187500   0.937500   0.312500   x 
            x  Ni          85         0.437500   0.812500   0.437500   x 
            x  Ni          86         0.437500   0.937500   0.312500   x 
            x  Ni          87         0.562500   0.937500   0.437500   x 
            x  Ni          88         0.687500   0.937500   0.312500   x 
            x  Ni          89         0.812500   0.937500   0.437500   x 
            x  Ni          90         0.937500   0.812500   0.437500   x 
            x  Ni          91         0.937500   0.937500   0.312500   x 
            x  Ni          92         0.812500   0.812500   0.312500   x 
            x  Ni          93         0.062500   0.187500   0.687500   x 
            x  Ni          94         0.187500   0.062500   0.687500   x 
            x  Ni          95         0.187500   0.187500   0.562500   x 
            x  Ni          96         0.062500   0.062500   0.562500   x 
            x  Ni          97         0.312500   0.187500   0.687500   x 
            x  Ni          98         0.437500   0.062500   0.687500   x 
            x  Ni          99         0.437500   0.187500   0.562500   x 
            x  Ni         100         0.312500   0.062500   0.562500   x 
            x  Ni         101         0.687500   0.187500   0.562500   x 
            x  Ni         102         0.562500   0.062500   0.562500   x 
            x  Ni         103         0.812500   0.187500   0.687500   x 
            x  Ni         104         0.937500   0.062500   0.687500   x 
            x  Ni         105         0.187500   0.312500   0.687500   x 
            x  Ni         106         0.187500   0.437500   0.562500   x 
            x  Ni         107         0.062500   0.312500   0.562500   x 
            x  Ni         108         0.312500   0.437500   0.687500   x 
            x  Ni         109         0.437500   0.312500   0.687500   x 
            x  Ni         110         0.437500   0.437500   0.562500   x 
            x  Ni         111         0.312500   0.312500   0.562500   x 
            x  Ni         112         0.562500   0.437500   0.687500   x 
            x  Ni         113         0.687500   0.312500   0.687500   x 
            x  Ni         114         0.687500   0.437500   0.562500   x 
            x  Ni         115         0.562500   0.312500   0.562500   x 
            x  Ni         116         0.812500   0.437500   0.687500   x 
            x  Ni         117         0.937500   0.312500   0.687500   x 
            x  Ni         118         0.937500   0.437500   0.562500   x 
            x  Ni         119         0.062500   0.687500   0.687500   x 
            x  Ni         120         0.187500   0.562500   0.687500   x 
            x  Ni         121         0.187500   0.687500   0.562500   x 
            x  Ni         122         0.062500   0.562500   0.562500   x 
            x  Ni         123         0.312500   0.687500   0.687500   x 
            x  Ni         124         0.437500   0.562500   0.687500   x 
            x  Ni         125         0.437500   0.687500   0.562500   x 
            x  Ni         126         0.312500   0.562500   0.562500   x 
            x  Ni         127         0.562500   0.687500   0.687500   x 
            x  Ni         128         0.687500   0.562500   0.687500   x 
            x  Ni         129         0.687500   0.687500   0.562500   x 
            x  Ni         130         0.812500   0.687500   0.687500   x 
            x  Ni         131         0.937500   0.562500   0.687500   x 
            x  Ni         132         0.812500   0.562500   0.562500   x 
            x  Ni         133         0.062500   0.937500   0.687500   x 
            x  Ni         134         0.187500   0.812500   0.687500   x 
            x  Ni         135         0.187500   0.937500   0.562500   x 
            x  Ni         136         0.062500   0.812500   0.562500   x 
            x  Ni         137         0.312500   0.937500   0.687500   x 
            x  Ni         138         0.437500   0.812500   0.687500   x 
            x  Ni         139         0.437500   0.937500   0.562500   x 
            x  Ni         140         0.687500   0.812500   0.687500   x 
            x  Ni         141         0.687500   0.937500   0.562500   x 
            x  Ni         142         0.562500   0.812500   0.562500   x 
            x  Ni         143         0.937500   0.812500   0.687500   x 
            x  Ni         144         0.937500   0.937500   0.562500   x 
            x  Ni         145         0.812500   0.812500   0.562500   x 
            x  Ni         146         0.062500   0.187500   0.937500   x 
            x  Ni         147         0.187500   0.062500   0.937500   x 
            x  Ni         148         0.187500   0.187500   0.812500   x 
            x  Ni         149         0.312500   0.187500   0.937500   x 
            x  Ni         150         0.312500   0.062500   0.812500   x 
            x  Ni         151         0.562500   0.187500   0.937500   x 
            x  Ni         152         0.687500   0.062500   0.937500   x 
            x  Ni         153         0.687500   0.187500   0.812500   x 
            x  Ni         154         0.562500   0.062500   0.812500   x 
            x  Ni         155         0.937500   0.187500   0.812500   x 
            x  Ni         156         0.812500   0.062500   0.812500   x 
            x  Ni         157         0.062500   0.437500   0.937500   x 
            x  Ni         158         0.187500   0.312500   0.937500   x 
            x  Ni         159         0.187500   0.437500   0.812500   x 
            x  Ni         160         0.062500   0.312500   0.812500   x 
            x  Ni         161         0.312500   0.437500   0.937500   x 
            x  Ni         162         0.437500   0.437500   0.812500   x 
            x  Ni         163         0.312500   0.312500   0.812500   x 
            x  Ni         164         0.562500   0.437500   0.937500   x 
            x  Ni         165         0.687500   0.437500   0.812500   x 
            x  Ni         166         0.562500   0.312500   0.812500   x 
            x  Ni         167         0.937500   0.312500   0.937500   x 
            x  Ni         168         0.937500   0.437500   0.812500   x 
            x  Ni         169         0.812500   0.312500   0.812500   x 
            x  Ni         170         0.062500   0.687500   0.937500   x 
            x  Ni         171         0.187500   0.687500   0.812500   x 
            x  Ni         172         0.062500   0.562500   0.812500   x 
            x  Ni         173         0.437500   0.687500   0.812500   x 
            x  Ni         174         0.312500   0.562500   0.812500   x 
            x  Ni         175         0.562500   0.687500   0.937500   x 
            x  Ni         176         0.687500   0.687500   0.812500   x 
            x  Ni         177         0.562500   0.562500   0.812500   x 
            x  Ni         178         0.937500   0.562500   0.937500   x 
            x  Ni         179         0.937500   0.687500   0.812500   x 
            x  Ni         180         0.812500   0.562500   0.812500   x 
            x  Ni         181         0.187500   0.812500   0.937500   x 
            x  Ni         182         0.187500   0.937500   0.812500   x 
            x  Ni         183         0.062500   0.812500   0.812500   x 
            x  Ni         184         0.437500   0.812500   0.937500   x 
            x  Ni         185         0.437500   0.937500   0.812500   x 
            x  Ni         186         0.312500   0.812500   0.812500   x 
            x  Ni         187         0.562500   0.937500   0.937500   x 
            x  Ni         188         0.687500   0.812500   0.937500   x 
            x  Ni         189         0.687500   0.937500   0.812500   x 
            x  Ni         190         0.562500   0.812500   0.812500   x 
            x  Ni         191         0.937500   0.812500   0.937500   x 
            x  Ni         192         0.812500   0.812500   0.812500   x 
            xxxxxxxxxxxxxxxxxxxxxxxxxxxxxxxxxxxxxxxxxxxxxxxxxxxxxxxxxxxx
 
 
                         No user defined ionic velocities
 
                           -------------------------------
                                   Details of Species
                           -------------------------------
 
                               Mass of species in AMU
                                    Al   26.9815400
                                    Ni   58.6934000
 
                          Electric Quadrupole Moment (Barn)
                                    Al    0.1466000 Isotope 27
                                    Ni    0.1620000 Isotope 61
 
                          Files used for pseudopotentials:
                                    Al 3|2.2|2.2|1.4|4|5|5|30:31:32U2U2
                                    Ni 3|2.4|2.4|1.0|8|9|10|40:41:32U2U2(qc=5.5)
 
                           -------------------------------
                              k-Points For BZ Sampling
                           -------------------------------
                       MP grid size for SCF calculation is  1  1  1
                            with an offset of   0.000  0.000  0.000
                       Number of kpoints used =             1
 
                           -------------------------------
                               Symmetry and Constraints
                           -------------------------------
 
                      Maximum deviation from symmetry =  0.00000         ANG
 
                      Number of symmetry operations   =           1
                      Number of ionic constraints     =           3
                      Point group of crystal =     1: C1, 1, 1
                      Space group of crystal =     1: P1, P 1
 
             Set iprint > 1 for details on symmetry rotations/translations
 
                         Centre of mass is constrained
             Set iprint > 1 for details of linear ionic constraints
 
                         Number of cell constraints= 0
                         Cell constraints are:  1 2 3 4 5 6
 
                         External pressure/stress (GPa)
                          0.00000   0.00000   0.00000
                                    0.00000   0.00000
                                              0.00000
  
+---------------- MEMORY AND SCRATCH DISK ESTIMATES PER PROCESS --------------+
|                                                     Memory          Disk    |
| Baseline code, static data and system overhead     6721.0 MB         0.0 MB |
| BLAS internal memory storage                          0.0 MB         0.0 MB |
| Model and support data                              703.7 MB         0.0 MB |
| Electronic energy minimisation requirements         158.6 MB         0.0 MB |
| Force calculation requirements                        5.4 MB         0.0 MB |
|                                               ----------------------------- |
| Approx. total storage required per process         7583.3 MB         0.0 MB |
|                                                                             |
| Requirements will fluctuate during execution and may exceed these estimates |
+-----------------------------------------------------------------------------+
Calculating finite basis set correction with  3 cut-off energies.
Calculating total energy with cut-off of  890.000 eV.
------------------------------------------------------------------------ <-- SCF
SCF loop      Energy           Fermi           Energy gain       Timer   <-- SCF
                               energy          per atom          (sec)   <-- SCF
------------------------------------------------------------------------ <-- SCF
Initial  -2.20461542E+005  0.00000000E+000                        19.83  <-- SCF
      1  -2.63846668E+005  7.21652006E+000   1.69473148E+002      58.73  <-- SCF
      2  -2.70729351E+005  3.80769868E+000   2.68854813E+001      92.78  <-- SCF
      3  -2.71448694E+005  3.73352890E+000   2.80993129E+000     129.06  <-- SCF
      4  -2.71509115E+005  3.86347335E+000   2.36019583E-001     160.26  <-- SCF
      5  -2.71848398E+005  6.75186497E+000   1.32532361E+000     200.20  <-- SCF
      6  -2.71600808E+005  5.74346406E+000  -9.67147272E-001     246.95  <-- SCF
      7  -2.71500433E+005  4.74078034E+000  -3.92090610E-001     287.49  <-- SCF
      8  -2.71480409E+005  4.50933597E+000  -7.82194722E-002     331.25  <-- SCF
      9  -2.71478003E+005  4.52726292E+000  -9.39737513E-003     370.79  <-- SCF
     10  -2.71492573E+005  4.62381700E+000   5.69152750E-002     410.24  <-- SCF
     11  -2.71481422E+005  4.51906117E+000  -4.35584985E-002     451.85  <-- SCF
     12  -2.71475340E+005  4.47496262E+000  -2.37570257E-002     490.96  <-- SCF
     13  -2.71474770E+005  4.47105267E+000  -2.22959331E-003     529.99  <-- SCF
     14  -2.71475248E+005  4.48275257E+000   1.86864935E-003     569.13  <-- SCF
     15  -2.71474126E+005  4.47584746E+000  -4.38082246E-003     608.01  <-- SCF
     16  -2.71474026E+005  4.47668345E+000  -3.94267827E-004     647.38  <-- SCF
     17  -2.71474032E+005  4.47908627E+000   2.39550855E-005     686.37  <-- SCF
     18  -2.71473960E+005  4.48159784E+000  -2.81554843E-004     724.70  <-- SCF
     19  -2.71473965E+005  4.48222911E+000   2.01306740E-005     763.36  <-- SCF
     20  -2.71474005E+005  4.48325773E+000   1.55445798E-004     802.42  <-- SCF
     21  -2.71473953E+005  4.48391626E+000  -2.02299368E-004     841.18  <-- SCF
     22  -2.71473946E+005  4.48426526E+000  -2.55946761E-005     879.82  <-- SCF
     23  -2.71473950E+005  4.48380110E+000   1.46300492E-005     918.26  <-- SCF
     24  -2.71473945E+005  4.48401083E+000  -2.02757040E-005     955.65  <-- SCF
     25  -2.71473943E+005  4.48402502E+000  -5.47968731E-006     984.75  <-- SCF
     26  -2.71473943E+005  4.48402409E+000  -3.91768585E-008    1009.28  <-- SCF
     27  -2.71473943E+005  4.48409161E+000   9.22813848E-008    1033.82  <-- SCF
------------------------------------------------------------------------ <-- SCF
 
Final energy, E             =  -271468.5241480     eV
Final free energy (E-TS)    =  -271473.9433271     eV
(energies not corrected for finite basis set)
 
NB est. 0K energy (E-0.5TS)      =  -271471.2337376     eV
 
Calculating total energy with cut-off of  895.000 eV.
------------------------------------------------------------------------ <-- SCF
SCF loop      Energy           Fermi           Energy gain       Timer   <-- SCF
                               energy          per atom          (sec)   <-- SCF
------------------------------------------------------------------------ <-- SCF
Initial  -2.71468518E+005  0.00000000E+000                      1046.33  <-- SCF
      1  -2.71474270E+005  4.49405861E+000   2.24689879E-002    1084.63  <-- SCF
      2  -2.71474271E+005  4.49405787E+000   2.31851778E-006    1117.75  <-- SCF
      3  -2.71539329E+005  4.76002041E+000   2.54135775E-001    1159.27  <-- SCF
      4  -2.71487555E+005  4.49387477E+000  -2.02244693E-001    1202.93  <-- SCF
      5  -2.71475500E+005  4.46033086E+000  -4.70892229E-002    1242.47  <-- SCF
      6  -2.71474244E+005  4.45850198E+000  -4.90465013E-003    1281.61  <-- SCF
      7  -2.71474166E+005  4.46852282E+000  -3.06542117E-004    1321.60  <-- SCF
      8  -2.71474092E+005  4.48293785E+000  -2.87279753E-004    1361.28  <-- SCF
      9  -2.71473970E+005  4.48879877E+000  -4.76436340E-004    1400.17  <-- SCF
     10  -2.71473963E+005  4.48492645E+000  -3.06022516E-005    1439.54  <-- SCF
     11  -2.71473950E+005  4.48053090E+000  -4.78574746E-005    1477.56  <-- SCF
     12  -2.71473948E+005  4.47990798E+000  -7.94736111E-006    1514.16  <-- SCF
     13  -2.71473948E+005  4.48217146E+000  -2.18136195E-007    1550.43  <-- SCF
     14  -2.71473946E+005  4.48301547E+000  -8.54438675E-006    1583.77  <-- SCF
     15  -2.71473946E+005  4.48353109E+000   7.99280961E-007    1613.72  <-- SCF
     16  -2.71473945E+005  4.48405582E+000  -3.25304875E-006    1646.91  <-- SCF
     17  -2.71473944E+005  4.48424448E+000  -6.88299023E-006    1674.71  <-- SCF
     18  -2.71473944E+005  4.48426569E+000  -3.30142223E-007    1699.37  <-- SCF
     19  -2.71473944E+005  4.48426825E+000   2.82599173E-007    1723.84  <-- SCF
------------------------------------------------------------------------ <-- SCF
 
Final energy, E             =  -271468.5214710     eV
Final free energy (E-TS)    =  -271473.9436425     eV
(energies not corrected for finite basis set)
 
NB est. 0K energy (E-0.5TS)      =  -271471.2325568     eV
 
Calculating total energy with cut-off of  900.000 eV.
------------------------------------------------------------------------ <-- SCF
SCF loop      Energy           Fermi           Energy gain       Timer   <-- SCF
                               energy          per atom          (sec)   <-- SCF
------------------------------------------------------------------------ <-- SCF
Initial  -2.71468516E+005  0.00000000E+000                      1736.33  <-- SCF
      1  -2.71474307E+005  4.48330700E+000   2.26208521E-002    1776.01  <-- SCF
      2  -2.71474308E+005  4.48330620E+000   1.86884112E-006    1808.90  <-- SCF
      3  -2.71566855E+005  4.92335806E+000   3.61512143E-001    1850.96  <-- SCF
      4  -2.71490051E+005  4.53240499E+000  -3.00014435E-001    1895.40  <-- SCF
      5  -2.71475962E+005  4.45825639E+000  -5.50342338E-002    1936.37  <-- SCF
      6  -2.71474216E+005  4.45852122E+000  -6.82062936E-003    1977.27  <-- SCF
      7  -2.71474183E+005  4.47118255E+000  -1.27744284E-004    2017.93  <-- SCF
      8  -2.71474078E+005  4.48658990E+000  -4.13543224E-004    2058.71  <-- SCF
      9  -2.71473980E+005  4.48819644E+000  -3.82670897E-004    2098.60  <-- SCF
     10  -2.71473974E+005  4.48297287E+000  -2.03838268E-005    2139.10  <-- SCF
     11  -2.71473956E+005  4.47866472E+000  -7.22985342E-005    2178.74  <-- SCF
     12  -2.71473954E+005  4.47869745E+000  -6.97518035E-006    2217.46  <-- SCF
     13  -2.71473951E+005  4.48138062E+000  -1.19681075E-005    2255.36  <-- SCF
     14  -2.71473948E+005  4.48213334E+000  -1.10827159E-005    2291.51  <-- SCF
     15  -2.71473948E+005  4.48241722E+000  -1.45943934E-006    2318.94  <-- SCF
     16  -2.71473947E+005  4.48338688E+000  -4.78586482E-006    2355.60  <-- SCF
     17  -2.71473944E+005  4.48378036E+000  -9.42310534E-006    2388.38  <-- SCF
     18  -2.71473944E+005  4.48403013E+000  -7.04777228E-007    2413.73  <-- SCF
     19  -2.71473944E+005  4.48399364E+000   7.48645495E-007    2438.95  <-- SCF
------------------------------------------------------------------------ <-- SCF
 
Final energy, E             =  -271468.5254598     eV
Final free energy (E-TS)    =  -271473.9441497     eV
(energies not corrected for finite basis set)
 
NB est. 0K energy (E-0.5TS)      =  -271471.2348048     eV
 
 For future reference: finite basis dEtot/dlog(Ecut) =      -0.078771eV
 Total energy corrected for finite basis set = -271473.944250 eV
 
+---------------- MEMORY AND SCRATCH DISK ESTIMATES PER PROCESS --------------+
|                                                     Memory          Disk    |
| Model and support data                              723.2 MB         0.0 MB |
| Electronic energy minimisation requirements         158.6 MB         0.0 MB |
| Geometry minimisation requirements                  195.6 MB         0.0 MB |
|                                               ----------------------------- |
| Approx. total storage required per process         1077.4 MB         0.0 MB |
|                                                                             |
| Requirements will fluctuate during execution and may exceed these estimates |
+-----------------------------------------------------------------------------+
 
 
 ************************************** Forces **************************************
 *                                                                                  *
 *                           Cartesian components (eV/A)                            *
 * -------------------------------------------------------------------------------- *
 *                         x                    y                    z              *
 *                                                                                  *
 * Al              1      0.16550             -1.46662             -1.43581         *
 * Al              2     -0.86646             -0.78187             -0.05242         *
 * Al              3     -0.71993             -0.74675             -0.05129         *
 * Al              4      1.49710             -2.13685              0.55789         *
 * Al              5     -0.09457              0.67835             -0.86521         *
 * Al              6     -0.78587              0.11471             -0.80896         *
 * Al              7      0.00795             -0.70701             -0.80709         *
 * Al              8      0.00044              1.48933             -0.11480         *
 * Al              9     -0.75888             -0.73181             -0.08802         *
 * Al             10      1.57560             -0.04487             -0.13909         *
 * Al             11     -1.43974              0.04533              0.01612         *
 * Al             12     -0.03742              0.69460              0.70207         *
 * Al             13     -0.54400              1.49395              0.64667         *
 * Al             14      0.07046              0.11033              0.01677         *
 * Al             15     -0.76834              0.03050             -0.77464         *
 * Al             16     -0.11705             -0.03292              0.03517         *
 * Al             17      1.51513              1.42774             -1.39019         *
 * Al             18     -0.00603             -1.59034             -0.10711         *
 * Al             19     -0.80483             -0.79101             -0.00515         *
 * Al             20      0.72353             -0.00476              2.28975         *
 * Al             21      0.04075              0.71000              0.80776         *
 * Al             22     -0.05476              0.76383              0.92551         *
 * Al             23      0.03212              1.50347              1.61000         *
 * Al             24      0.03153             -0.02841              0.04861         *
 * Al             25      0.06739             -0.64765              0.63091         *
 * Al             26      2.20684              0.66310              1.40221         *
 * Al             27     -0.06817              0.69318              0.74659         *
 * Al             28     -0.14594              0.72952             -0.70982         *
 * Al             29     -0.72426              0.06969             -0.69142         *
 * Al             30      0.64471             -0.06409              0.75142         *
 * Al             31      0.77850              0.83787             -1.47535         *
 * Al             32      0.81251              2.30624              0.04254         *
 * Al             33     -0.76550              0.06076              0.75280         *
 * Al             34     -2.21647              0.02169              0.78953         *
 * Al             35     -1.47622              0.70169              0.74703         *
 * Al             36     -0.53369              0.50535              1.42013         *
 * Al             37      0.74002              2.26293              0.05669         *
 * Al             38      0.80074             -2.12807              0.13072         *
 * Al             39      0.59194              1.26974             -0.53800         *
 * Al             40      0.12253             -2.08036             -0.53797         *
 * Al             41     -0.81905              0.00804             -0.79874         *
 * Al             42     -0.03063             -0.80596              0.83684         *
 * Al             43     -2.27150             -0.80535              0.04286         *
 * Al             44      1.56702              0.76422             -0.76266         *
 * Al             45      0.83275             -1.46515              0.85837         *
 * Al             46     -0.14820             -0.57303              2.17430         *
 * Al             47      0.76379              0.62971             -1.55472         *
 * Al             48      1.41390             -2.10300             -0.64154         *
 * Al             49     -0.63321              0.56982             -1.37731         *
 * Al             50     -1.58716             -0.74710             -0.77977         *
 * Al             51     -0.75172             -0.68898             -0.06063         *
 * Al             52      0.63936              0.01333              0.75134         *
 * Al             53      0.04342              0.10858              0.01352         *
 * Al             54      0.82177              0.00002             -0.78714         *
 * Al             55     -0.84853              0.81528              0.06358         *
 * Al             56      0.00224              0.70357              0.55363         *
 * Al             57      0.03178             -0.69451             -0.75654         *
 * Al             58      0.78398              0.06808             -0.81303         *
 * Al             59     -0.74261             -0.81090             -1.47800         *
 * Al             60      0.71303             -1.63537             -0.76302         *
 * Al             61      0.04497             -0.80337             -0.78932         *
 * Al             62     -0.05063              0.03977              0.02186         *
 * Al             63     -0.12277              0.66352              0.72723         *
 * Al             64      0.84049              1.55766              0.76554         *
 * Ni              1      0.06366             -0.00027              0.06981         *
 * Ni              2     -0.03181              0.00912             -0.04356         *
 * Ni              3      0.10362              0.00117             -0.11432         *
 * Ni              4      0.08865             -0.02985              0.00519         *
 * Ni              5     -0.06261             -0.03489              0.01932         *
 * Ni              6     -0.05700             -0.20965              0.13128         *
 * Ni              7     -0.00233              0.04177              0.01973         *
 * Ni              8     -0.06990              0.00243             -0.11730         *
 * Ni              9      0.14170              0.06932              0.15251         *
 * Ni             10     -0.06675              0.02618              0.00604         *
 * Ni             11     -0.12502             -0.22097             -0.18465         *
 * Ni             12      0.00794             -0.05351             -0.03317         *
 * Ni             13      0.16280             -0.11014             -0.01880         *
 * Ni             14      0.08477              0.05326             -0.03905         *
 * Ni             15      0.01996              0.02995             -0.06550         *
 * Ni             16     -0.07446              0.01580             -0.02370         *
 * Ni             17     -0.06270             -0.01449             -0.21540         *
 * Ni             18     -0.22317              0.10018             -0.06674         *
 * Ni             19     -0.02501              0.19388              0.16144         *
 * Ni             20     -0.01696              0.01982             -0.00558         *
 * Ni             21      0.14302             -0.07062             -0.00191         *
 * Ni             22     -0.09251              0.07252             -0.13111         *
 * Ni             23      0.01610             -0.01300             -0.02248         *
 * Ni             24      0.18018              0.11534             -0.14874         *
 * Ni             25      0.17983              0.01947             -0.03435         *
 * Ni             26     -0.04510             -0.10884             -0.08714         *
 * Ni             27     -0.22539             -0.22692             -0.08974         *
 * Ni             28      0.02848              0.14432             -0.18888         *
 * Ni             29     -0.17806             -0.09458              0.12917         *
 * Ni             30      0.39367             -0.34261              0.16689         *
 * Ni             31      0.04629             -0.06637             -0.12725         *
 * Ni             32     -0.07202             -0.20683             -0.17990         *
 * Ni             33     -0.00871              0.10347             -0.00155         *
 * Ni             34      0.03871              0.05419             -0.00886         *
 * Ni             35      0.05693             -0.14425             -0.05808         *
 * Ni             36     -0.11130             -0.23827              0.00249         *
 * Ni             37      0.04647              0.11577             -0.20981         *
 * Ni             38     -0.10476              0.09649             -0.07796         *
 * Ni             39     -0.07748              0.02694              0.19158         *
 * Ni             40      0.01041             -0.15158             -0.05873         *
 * Ni             41      0.05017              0.15957             -0.07071         *
 * Ni             42     -0.20720              0.11807              0.06160         *
 * Ni             43     -0.16783              0.13430              0.09700         *
 * Ni             44      0.04967              0.03620              0.06811         *
 * Ni             45      0.03224              0.20729             -0.08976         *
 * Ni             46      0.05883              0.18504             -0.02371         *
 * Ni             47      0.03585             -0.04923              0.20393         *
 * Ni             48     -0.01908             -0.05895              0.00299         *
 * Ni             49      0.19739              0.22353             -0.17300         *
 * Ni             50      0.15097             -0.13277              0.03178         *
 * Ni             51     -0.09872             -0.26397             -0.02399         *
 * Ni             52     -0.13524              0.07406              0.01908         *
 * Ni             53      0.00248             -0.26499             -0.06286         *
 * Ni             54      0.06208              0.24981              0.13015         *
 * Ni             55     -0.02180             -0.16733             -0.01701         *
 * Ni             56      0.02400              0.05084              0.01006         *
 * Ni             57      0.02653             -0.02283              0.07675         *
 * Ni             58     -0.00199              0.14839             -0.01933         *
 * Ni             59     -0.16538              0.01883              0.05559         *
 * Ni             60      0.24608             -0.02181              0.10944         *
 * Ni             61     -0.08606             -0.04961              0.03948         *
 * Ni             62      0.21292              0.30572              0.24610         *
 * Ni             63      0.40943              0.29528              0.20634         *
 * Ni             64     -0.06191             -0.00693              0.21258         *
 * Ni             65     -0.06178              0.04096              0.04059         *
 * Ni             66     -0.18708             -0.12066             -0.04576         *
 * Ni             67     -0.23841              0.09259             -0.07427         *
 * Ni             68     -0.22005              0.09542              0.18249         *
 * Ni             69      0.06539              0.41487             -0.01690         *
 * Ni             70     -0.24889             -0.41471              0.25251         *
 * Ni             71     -0.07833             -0.26347             -0.05811         *
 * Ni             72      0.04476             -0.08018              0.16590         *
 * Ni             73     -0.23565             -0.30984             -0.08234         *
 * Ni             74      0.20397              0.27786              0.14974         *
 * Ni             75      0.34111             -0.40552             -0.09322         *
 * Ni             76     -0.20742              0.05868              0.05721         *
 * Ni             77     -0.03709              0.03535             -0.01377         *
 * Ni             78     -0.08366              0.11085              0.08284         *
 * Ni             79     -0.15078              0.02076              0.15774         *
 * Ni             80      0.05113             -0.05769             -0.02484         *
 * Ni             81      0.19711             -0.15693              0.01386         *
 * Ni             82     -0.02332              0.01771              0.15455         *
 * Ni             83      0.15541             -0.06793              0.03270         *
 * Ni             84      0.18246             -0.13214              0.23307         *
 * Ni             85     -0.37157             -0.09035              0.19007         *
 * Ni             86     -0.07688              0.12869             -0.00933         *
 * Ni             87     -0.15907             -0.08843             -0.00466         *
 * Ni             88     -0.01091             -0.14942             -0.13548         *
 * Ni             89      0.15786              0.10111              0.06568         *
 * Ni             90     -0.07842              0.09792              0.00853         *
 * Ni             91     -0.10564             -0.14254             -0.17695         *
 * Ni             92      0.17449              0.24641             -0.07290         *
 * Ni             93      0.16376              0.15247              0.02573         *
 * Ni             94      0.08683             -0.01794             -0.02420         *
 * Ni             95     -0.04816             -0.06904              0.07411         *
 * Ni             96     -0.01012              0.13414              0.05962         *
 * Ni             97     -0.10153              0.05480             -0.09549         *
 * Ni             98     -0.21437              0.07304             -0.06299         *
 * Ni             99     -0.05138             -0.04421             -0.04102         *
 * Ni            100      0.08405              0.11489              0.09658         *
 * Ni            101      0.38305             -0.10912             -0.49037         *
 * Ni            102     -0.13988              0.06467              0.21020         *
 * Ni            103      0.08382             -0.05893             -0.11302         *
 * Ni            104     -0.09868             -0.11963             -0.04729         *
 * Ni            105      0.04495             -0.08681             -0.11982         *
 * Ni            106      0.15629              0.03907             -0.01247         *
 * Ni            107      0.15549              0.03154             -0.07862         *
 * Ni            108     -0.05807             -0.03103              0.07115         *
 * Ni            109     -0.02188              0.00632              0.02455         *
 * Ni            110      0.03784              0.06469             -0.03124         *
 * Ni            111      0.03088             -0.03713              0.07725         *
 * Ni            112     -0.04715             -0.12854              0.03711         *
 * Ni            113     -0.01722              0.13109              0.15499         *
 * Ni            114     -0.05100             -0.07769             -0.06245         *
 * Ni            115     -0.13159              0.13074             -0.02564         *
 * Ni            116      0.07499              0.11762              0.07639         *
 * Ni            117     -0.11305             -0.13987              0.11220         *
 * Ni            118      0.00216              0.16558              0.13099         *
 * Ni            119      0.09614             -0.08135              0.02908         *
 * Ni            120      0.05603              0.06078              0.06367         *
 * Ni            121      0.15788              0.19981             -0.10908         *
 * Ni            122      0.04926              0.12138             -0.06851         *
 * Ni            123     -0.01095             -0.10010              0.10194         *
 * Ni            124     -0.05252              0.01065             -0.05437         *
 * Ni            125     -0.09900              0.14388              0.11864         *
 * Ni            126      0.00314             -0.06650              0.12517         *
 * Ni            127     -0.01329              0.04081              0.03470         *
 * Ni            128      0.11239             -0.00783              0.08694         *
 * Ni            129      0.15597              0.04083              0.09456         *
 * Ni            130     -0.11868              0.03622             -0.02469         *
 * Ni            131     -0.11485              0.01100              0.06146         *
 * Ni            132      0.02840             -0.05241              0.08536         *
 * Ni            133     -0.01082             -0.00692             -0.00352         *
 * Ni            134     -0.13089              0.04482              0.07534         *
 * Ni            135      0.23704             -0.15442             -0.19348         *
 * Ni            136      0.02843              0.05469              0.15219         *
 * Ni            137     -0.01117              0.07850              0.03826         *
 * Ni            138     -0.02667             -0.14127              0.08412         *
 * Ni            139     -0.03900             -0.01109             -0.15302         *
 * Ni            140     -0.02549             -0.20309             -0.00397         *
 * Ni            141      0.20006              0.38543              0.35232         *
 * Ni            142     -0.12519             -0.12830              0.09303         *
 * Ni            143      0.08874              0.05855              0.22090         *
 * Ni            144     -0.03250             -0.04212             -0.00050         *
 * Ni            145     -0.09156              0.00096              0.05458         *
 * Ni            146     -0.06673             -0.08000              0.01559         *
 * Ni            147     -0.14394              0.09770             -0.02079         *
 * Ni            148      0.14456              0.06942              0.03193         *
 * Ni            149      0.07205              0.09307             -0.09293         *
 * Ni            150      0.04912              0.01981              0.02070         *
 * Ni            151     -0.25373             -0.13678             -0.15141         *
 * Ni            152     -0.08069             -0.18629             -0.09224         *
 * Ni            153     -0.02474              0.05156             -0.03443         *
 * Ni            154      0.19622              0.13550             -0.10696         *
 * Ni            155     -0.01943              0.06181             -0.01377         *
 * Ni            156      0.29650             -0.25783              0.24656         *
 * Ni            157      0.00007             -0.08322             -0.05109         *
 * Ni            158     -0.02030              0.00149              0.01030         *
 * Ni            159      0.07436             -0.06053             -0.01237         *
 * Ni            160     -0.01309             -0.06857              0.02686         *
 * Ni            161     -0.07274             -0.14025              0.02461         *
 * Ni            162     -0.04243             -0.02234             -0.15843         *
 * Ni            163      0.03616              0.01891             -0.00148         *
 * Ni            164     -0.05873              0.24414             -0.07328         *
 * Ni            165      0.10011              0.04014              0.04989         *
 * Ni            166     -0.16501              0.01156             -0.17758         *
 * Ni            167      0.10874             -0.04611             -0.02633         *
 * Ni            168      0.01134             -0.03658             -0.01110         *
 * Ni            169     -0.12547              0.06018              0.08799         *
 * Ni            170      0.05295              0.12403             -0.17014         *
 * Ni            171      0.04173             -0.03498             -0.00054         *
 * Ni            172     -0.11137              0.13884             -0.02120         *
 * Ni            173      0.02800              0.02161             -0.02104         *
 * Ni            174     -0.02381              0.05593              0.15310         *
 * Ni            175     -0.01906             -0.21732             -0.19240         *
 * Ni            176     -0.04977             -0.01998              0.00532         *
 * Ni            177     -0.00922             -0.00880             -0.26844         *
 * Ni            178      0.20281              0.09579             -0.02015         *
 * Ni            179      0.10756              0.02840             -0.10651         *
 * Ni            180     -0.04664              0.00110              0.13028         *
 * Ni            181     -0.09243             -0.05176              0.00831         *
 * Ni            182     -0.06595             -0.07007             -0.18293         *
 * Ni            183     -0.03804             -0.07106              0.07036         *
 * Ni            184      0.11071              0.06777             -0.20114         *
 * Ni            185     -0.18258             -0.04225              0.02136         *
 * Ni            186      0.01919             -0.04080             -0.30385         *
 * Ni            187      0.08431             -0.00505              0.09351         *
 * Ni            188     -0.13832              0.14371             -0.05986         *
 * Ni            189     -0.15267              0.00093             -0.15116         *
 * Ni            190      0.03622             -0.06007              0.07733         *
 * Ni            191      0.01892             -0.00957             -0.15132         *
 * Ni            192      0.05234              0.10224             -0.15849         *
 *                                                                                  *
 ************************************************************************************
 
 ***************** Stress Tensor *****************
 *                                               *
 *          Cartesian components (GPa)           *
 * --------------------------------------------- *
 *             x             y             z     *
 *                                               *
 *  x     -0.132268      0.266623     -0.296480  *
 *  y      0.266623     -0.251120     -0.067203  *
 *  z     -0.296480     -0.067203     -0.181431  *
 *                                               *
 *  Pressure:    0.1883                          *
 *                                               *
 *************************************************
 EXP precond LBFGS => estimated nearest neighbor distance :  2.555       A
 EXP precond LBFGS => estimated cutoff distance :  5.110       A
 
 ************************************** Forces **************************************
 *                                                                                  *
 *                           Cartesian components (eV/A)                            *
 * -------------------------------------------------------------------------------- *
 *                         x                    y                    z              *
 *                                                                                  *
 * Al              1      0.16550             -1.46662             -1.43581         *
 * Al              2     -0.86646             -0.78187             -0.05242         *
 * Al              3     -0.71993             -0.74675             -0.05129         *
 * Al              4      1.49710             -2.13685              0.55789         *
 * Al              5     -0.09457              0.67835             -0.86521         *
 * Al              6     -0.78587              0.11471             -0.80896         *
 * Al              7      0.00795             -0.70701             -0.80709         *
 * Al              8      0.00044              1.48933             -0.11480         *
 * Al              9     -0.75888             -0.73181             -0.08802         *
 * Al             10      1.57560             -0.04487             -0.13909         *
 * Al             11     -1.43974              0.04533              0.01612         *
 * Al             12     -0.03742              0.69460              0.70207         *
 * Al             13     -0.54400              1.49395              0.64667         *
 * Al             14      0.07046              0.11033              0.01677         *
 * Al             15     -0.76834              0.03050             -0.77464         *
 * Al             16     -0.11705             -0.03292              0.03517         *
 * Al             17      1.51513              1.42774             -1.39019         *
 * Al             18     -0.00603             -1.59034             -0.10711         *
 * Al             19     -0.80483             -0.79101             -0.00515         *
 * Al             20      0.72353             -0.00476              2.28975         *
 * Al             21      0.04075              0.71000              0.80776         *
 * Al             22     -0.05476              0.76383              0.92551         *
 * Al             23      0.03212              1.50347              1.61000         *
 * Al             24      0.03153             -0.02841              0.04861         *
 * Al             25      0.06739             -0.64765              0.63091         *
 * Al             26      2.20684              0.66310              1.40221         *
 * Al             27     -0.06817              0.69318              0.74659         *
 * Al             28     -0.14594              0.72952             -0.70982         *
 * Al             29     -0.72426              0.06969             -0.69142         *
 * Al             30      0.64471             -0.06409              0.75142         *
 * Al             31      0.77850              0.83787             -1.47535         *
 * Al             32      0.81251              2.30624              0.04254         *
 * Al             33     -0.76550              0.06076              0.75280         *
 * Al             34     -2.21647              0.02169              0.78953         *
 * Al             35     -1.47622              0.70169              0.74703         *
 * Al             36     -0.53369              0.50535              1.42013         *
 * Al             37      0.74002              2.26293              0.05669         *
 * Al             38      0.80074             -2.12807              0.13072         *
 * Al             39      0.59194              1.26974             -0.53800         *
 * Al             40      0.12253             -2.08036             -0.53797         *
 * Al             41     -0.81905              0.00804             -0.79874         *
 * Al             42     -0.03063             -0.80596              0.83684         *
 * Al             43     -2.27150             -0.80535              0.04286         *
 * Al             44      1.56702              0.76422             -0.76266         *
 * Al             45      0.83275             -1.46515              0.85837         *
 * Al             46     -0.14820             -0.57303              2.17430         *
 * Al             47      0.76379              0.62971             -1.55472         *
 * Al             48      1.41390             -2.10300             -0.64154         *
 * Al             49     -0.63321              0.56982             -1.37731         *
 * Al             50     -1.58716             -0.74710             -0.77977         *
 * Al             51     -0.75172             -0.68898             -0.06063         *
 * Al             52      0.63936              0.01333              0.75134         *
 * Al             53      0.04342              0.10858              0.01352         *
 * Al             54      0.82177              0.00002             -0.78714         *
 * Al             55     -0.84853              0.81528              0.06358         *
 * Al             56      0.00224              0.70357              0.55363         *
 * Al             57      0.03178             -0.69451             -0.75654         *
 * Al             58      0.78398              0.06808             -0.81303         *
 * Al             59     -0.74261             -0.81090             -1.47800         *
 * Al             60      0.71303             -1.63537             -0.76302         *
 * Al             61      0.04497             -0.80337             -0.78932         *
 * Al             62     -0.05063              0.03977              0.02186         *
 * Al             63     -0.12277              0.66352              0.72723         *
 * Al             64      0.84049              1.55766              0.76554         *
 * Ni              1      0.06366             -0.00027              0.06981         *
 * Ni              2     -0.03181              0.00912             -0.04356         *
 * Ni              3      0.10362              0.00117             -0.11432         *
 * Ni              4      0.08865             -0.02985              0.00519         *
 * Ni              5     -0.06261             -0.03489              0.01932         *
 * Ni              6     -0.05700             -0.20965              0.13128         *
 * Ni              7     -0.00233              0.04177              0.01973         *
 * Ni              8     -0.06990              0.00243             -0.11730         *
 * Ni              9      0.14170              0.06932              0.15251         *
 * Ni             10     -0.06675              0.02618              0.00604         *
 * Ni             11     -0.12502             -0.22097             -0.18465         *
 * Ni             12      0.00794             -0.05351             -0.03317         *
 * Ni             13      0.16280             -0.11014             -0.01880         *
 * Ni             14      0.08477              0.05326             -0.03905         *
 * Ni             15      0.01996              0.02995             -0.06550         *
 * Ni             16     -0.07446              0.01580             -0.02370         *
 * Ni             17     -0.06270             -0.01449             -0.21540         *
 * Ni             18     -0.22317              0.10018             -0.06674         *
 * Ni             19     -0.02501              0.19388              0.16144         *
 * Ni             20     -0.01696              0.01982             -0.00558         *
 * Ni             21      0.14302             -0.07062             -0.00191         *
 * Ni             22     -0.09251              0.07252             -0.13111         *
 * Ni             23      0.01610             -0.01300             -0.02248         *
 * Ni             24      0.18018              0.11534             -0.14874         *
 * Ni             25      0.17983              0.01947             -0.03435         *
 * Ni             26     -0.04510             -0.10884             -0.08714         *
 * Ni             27     -0.22539             -0.22692             -0.08974         *
 * Ni             28      0.02848              0.14432             -0.18888         *
 * Ni             29     -0.17806             -0.09458              0.12917         *
 * Ni             30      0.39367             -0.34261              0.16689         *
 * Ni             31      0.04629             -0.06637             -0.12725         *
 * Ni             32     -0.07202             -0.20683             -0.17990         *
 * Ni             33     -0.00871              0.10347             -0.00155         *
[...]
            Ni 96  -- Ni 135                 0.14        2.60036
            Ni 137 -- Ni 138                 0.04        2.60057
            Ni 113 -- Ni 115                 0.06        2.60065
            Ni 116 -- Ni 117                 0.06        2.60084
            Ni 35  -- Ni 46                  0.03        2.60094
            Ni 54  -- Ni 91                 -0.01        2.60121
            Ni 90  -- Ni 91                  0.06        2.60130
            Ni 14  -- Ni 36                  0.08        2.60139
            Ni 18  -- Ni 68                 -0.01        2.60159
            Ni 164 -- Ni 166                 0.06        2.60162
            Ni 61  -- Ni 88                  0.06        2.60167
             Al 2  -- Al 52                  0.27        2.60181
            Ni 141 -- Ni 145                 0.01        2.60238
            Ni 1   -- Ni 3                   0.03        2.60264
             Al 52 -- Ni 188                 0.16        2.60299
            Ni 156 -- Ni 189                -0.02        2.60301
            Ni 155 -- Ni 169                 0.07        2.60306
            Ni 112 -- Ni 124                 0.05        2.60348
            Ni 147 -- Ni 182                -0.07        2.60352
            Ni 175 -- Ni 188                 0.10        2.60367
             Al 24 -- Ni 131                 0.17        2.60371
            Ni 42  -- Ni 86                  0.01        2.60387
            Ni 1   -- Ni 12                  0.08        2.60409
            Ni 33  -- Ni 34                  0.07        2.60424
            Ni 22  -- Ni 37                  0.05        2.60450
            Ni 72  -- Ni 82                 -0.01        2.60484
            Ni 33  -- Ni 80                  0.03        2.60525
            Ni 22  -- Ni 34                  0.03        2.60533
            Ni 127 -- Ni 128                 0.05        2.60538
            Ni 151 -- Ni 152                 0.11        2.60571
            Ni 65  -- Ni 66                  0.07        2.60590
             Al 1  -- Al 18                  0.24        2.60623
            Ni 90  -- Ni 136                 0.04        2.60624
             Al 22 -- Ni 75                  0.18        2.60625
            Ni 70  -- Ni 107                 0.04        2.60642
            Ni 48  -- Ni 82                  0.04        2.60648
            Ni 69  -- Ni 118                 0.02        2.60666
            Ni 88  -- Ni 89                  0.03        2.60679
             Al 12 -- Ni 163                 0.15        2.60681
             Al 2  -- Ni 13                  0.16        2.60700
            Ni 29  -- Ni 36                  0.11        2.60714
            Ni 154 -- Ni 187                 0.11        2.60738
             Al 50 -- Ni 101                 0.16        2.60744
             Al 61 -- Ni 14                  0.16        2.60765
            Ni 103 -- Ni 153                 0.08        2.60794
             Al 59 -- Ni 24                  0.17        2.60807
             Al 3  -- Ni 150                 0.16        2.60863
             Al 1  -- Ni 156                 0.18        2.60889
             Al 63 -- Ni 6                   0.17        2.60909
            Ni 28  -- Ni 29                  0.01        2.60913
             Al 54 -- Al 58                  0.27        2.60964
            Ni 101 -- Ni 102                 0.05        2.60983
            Ni 25  -- Ni 167                 0.05        2.61022
            Ni 188 -- Ni 192                 0.04        2.61026
             Al 29 -- Ni 46                  0.17        2.61030
            Ni 10  -- Ni 24                  0.04        2.61052
            Ni 59  -- Ni 61                  0.04        2.61109
            Ni 39  -- Ni 147                -0.04        2.61118
            Ni 181 -- Ni 182                -0.02        2.61141
             Al 15 -- Ni 154                 0.13        2.61142
            Ni 36  -- Ni 37                  0.09        2.61228
            Ni 147 -- Ni 149                 0.11        2.61233
            Ni 31  -- Ni 42                  0.01        2.61241
             Al 3  -- Ni 43                  0.16        2.61276
             Al 6  -- Ni 35                  0.13        2.61281
            Ni 49  -- Ni 50                  0.09        2.61318
             Al 41 -- Al 49                  0.24        2.61334
             Al 14 -- Ni 12                  0.15        2.61357
            Ni 89  -- Ni 91                  0.06        2.61379
            Ni 134 -- Ni 137                 0.04        2.61429
            Ni 75  -- Ni 76                  0.02        2.61450
            Ni 19  -- Ni 161                 0.03        2.61481
            Ni 31  -- Ni 184                -0.00        2.61500
            Ni 103 -- Ni 113                 0.06        2.61504
             Al 33 -- Al 34                  0.24        2.61511
            Ni 51  -- Ni 95                  0.08        2.61588
             Al 23 -- Ni 69                  0.19        2.61606
            Ni 70  -- Ni 118                 0.04        2.61648
             Al 27 -- Al 28                  0.27        2.61661
            Ni 51  -- Ni 107                 0.04        2.61699
            Ni 46  -- Ni 50                  0.06        2.61713
            Ni 69  -- Ni 70                  0.07        2.61724
            Ni 8   -- Ni 47                  0.08        2.61735
            Ni 21  -- Ni 67                  0.02        2.61775
            Ni 73  -- Ni 77                  0.01        2.61828
             Al 39 -- Ni 36                  0.18        2.61847
            Ni 29  -- Ni 170                 0.00        2.61853
            Ni 14  -- Ni 16                  0.07        2.61871
            Ni 81  -- Ni 92                  0.05        2.61878
            Ni 67  -- Ni 69                  0.07        2.61880
            Ni 73  -- Ni 74                  0.06        2.61907
            Ni 75  -- Ni 77                  0.05        2.61983
             Al 57 -- Ni 42                  0.17        2.62016
             Al 53 -- Ni 84                  0.16        2.62025
             Al 61 -- Ni 53                  0.15        2.62044
             Al 51 -- Ni 45                  0.17        2.62050
            Ni 50  -- Ni 188                -0.03        2.62057
             Al 21 -- Ni 81                  0.16        2.62112
            Ni 52  -- Ni 100                 0.04        2.62128
            Ni 17  -- Ni 77                  0.02        2.62157
            Ni 114 -- Ni 116                 0.08        2.62170
            Ni 93  -- Ni 96                  0.04        2.62203
            Ni 24  -- Ni 71                 -0.02        2.62217
            Ni 8   -- Ni 62                  0.13        2.62252
            Ni 25  -- Ni 37                  0.02        2.62290
             Al 7  -- Ni 31                  0.14        2.62306
             Al 55 -- Ni 82                  0.16        2.62341
             Al 30 -- Ni 92                  0.18        2.62366
             Al 22 -- Ni 78                  0.17        2.62405
            Ni 89  -- Ni 141                 0.02        2.62439
            Ni 107 -- Ni 117                 0.02        2.62443
             Al 16 -- Al 62                  0.23        2.62511
            Ni 67  -- Ni 79                 -0.03        2.62546
             Al 3  -- Ni 7                   0.16        2.62562
            Ni 143 -- Ni 145                 0.02        2.62574
            Ni 55  -- Ni 111                 0.05        2.62585
             Al 44 -- Ni 14                  0.13        2.62660
            Ni 85  -- Ni 142                 0.09        2.62662
             Al 21 -- Ni 122                 0.16        2.62669
            Ni 22  -- Ni 26                  0.02        2.62701
             Al 58 -- Ni 74                  0.17        2.62720
            Ni 46  -- Ni 92                  0.04        2.62903
             Al 28 -- Ni 153                 0.18        2.62922
            Ni 2   -- Ni 3                   0.03        2.62973
            Ni 82  -- Ni 90                  0.02        2.62998
            Ni 73  -- Ni 126                 0.07        2.63090
            Ni 103 -- Ni 156                 0.11        2.63133
            Ni 69  -- Ni 79                  0.05        2.63158
             Al 22 -- Ni 114                 0.16        2.63163
             Al 18 -- Al 25                  0.23        2.63298
             Al 41 -- Ni 114                 0.17        2.63327
             Al 6  -- Ni 37                  0.14        2.63426
            Ni 72  -- Ni 74                  0.04        2.63438
            Ni 25  -- Ni 26                  0.01        2.63551
             Al 11 -- Ni 26                  0.15        2.63644
             Al 28 -- Ni 101                 0.16        2.63738
            Ni 56  -- Ni 58                  0.03        2.63763
             Al 28 -- Ni 98                  0.14        2.63781
            Ni 87  -- Ni 88                 -0.01        2.63782
            Ni 138 -- Ni 139                 0.01        2.63812
             Al 57 -- Ni 74                  0.17        2.63841
            Ni 2   -- Ni 84                  0.07        2.63842
            Ni 61  -- Ni 87                  0.06        2.63844
             Al 8  -- Ni 32                  0.14        2.63887
            Ni 85  -- Ni 86                 -0.02        2.64012
             Al 52 -- Al 62                  0.23        2.64107
             Al 2  -- Ni 49                  0.16        2.64108
            Ni 107 -- Ni 118                 0.02        2.64191
            Ni 28  -- Ni 38                  0.04        2.64193
            Ni 94  -- Ni 148                 0.03        2.64214
            Ni 79  -- Ni 80                  0.01        2.64228
             Al 15 -- Al 28                  0.23        2.64251
             Al 60 -- Ni 30                  0.15        2.64251
             Al 40 -- Ni 36                  0.19        2.64305
             Al 55 -- Ni 37                  0.18        2.64309
             Al 25 -- Al 27                  0.23        2.64319
            Ni 67  -- Ni 71                  0.07        2.64328
             Al 5  -- Al 54                  0.25        2.64381
             Al 47 -- Ni 70                  0.17        2.64470
            Ni 47  -- Ni 49                  0.11        2.64538
             Al 51 -- Ni 46                  0.15        2.64571
             Al 10 -- Ni 165                 0.13        2.64583
            Ni 69  -- Ni 71                  0.02        2.64594
            Ni 64  -- Ni 77                  0.01        2.64647
             Al 21 -- Ni 132                 0.14        2.64696
             Al 45 -- Ni 106                 0.15        2.64819
             Al 10 -- Ni 22                  0.16        2.64834
            Ni 30  -- Ni 31                  0.05        2.64847
             Al 13 -- Al 64                  0.22        2.64903
             Al 63 -- Ni 8                   0.16        2.65011
             Al 6  -- Al 56                  0.24        2.65038
             Al 15 -- Al 16                  0.23        2.65064
            Ni 70  -- Ni 71                  0.02        2.65098
            Ni 1   -- Ni 11                  0.03        2.65109
             Al 52 -- Ni 152                 0.11        2.65162
            Ni 87  -- Ni 141                 0.06        2.65290
             Al 3  -- Al 16                  0.23        2.65292
             Al 11 -- Ni 169                 0.13        2.65307
             Al 29 -- Ni 85                  0.15        2.65327
             Al 47 -- Ni 62                  0.14        2.65416
            Ni 141 -- Ni 142                 0.03        2.65437
             Al 59 -- Ni 71                  0.19        2.65533
            Ni 9   -- Ni 151                 0.04        2.65541
            Ni 54  -- Ni 83                  0.03        2.65692
             Al 18 -- Ni 156                 0.15        2.65692
            Ni 23  -- Ni 164                 0.04        2.65808
             Al 56 -- Ni 164                 0.12        2.65850
             Al 63 -- Ni 9                   0.15        2.65951
             Al 53 -- Al 64                  0.23        2.65986
             Al 57 -- Ni 38                  0.16        2.66027
             Al 52 -- Ni 187                 0.14        2.66080
            Ni 75  -- Ni 126                 0.06        2.66138
             Al 62 -- Al 63                  0.23        2.66155
             Al 55 -- Ni 36                  0.16        2.66172
             Al 47 -- Al 49                  0.21        2.66235
             Al 28 -- Ni 154                 0.14        2.66263
             Al 5  -- Al 6                   0.22        2.66320
            Ni 75  -- Ni 125                 0.04        2.66414
             Al 11 -- Al 14                  0.25        2.66442
             Al 59 -- Ni 67                  0.17        2.66453
            Ni 83  -- Ni 91                  0.01        2.66499
             Al 35 -- Ni 36                  0.17        2.66521
            Ni 62  -- Ni 88                  0.09        2.66525
            Ni 34  -- Ni 80                  0.00        2.66566
            Ni 39  -- Ni 181                -0.01        2.66611
             Al 33 -- Al 58                  0.24        2.66746
            Ni 87  -- Ni 102                 0.10        2.66778
            Ni 1   -- Ni 63                  0.08        2.66849
            Ni 48  -- Ni 49                  0.06        2.66875
             Al 33 -- Ni 84                  0.12        2.66917
            Ni 101 -- Ni 115                 0.05        2.66939
             Al 33 -- Al 53                  0.24        2.67151
             Al 27 -- Ni 101                 0.13        2.67245
             Al 5  -- Ni 178                 0.12        2.67275
             Al 35 -- Al 55                  0.24        2.67558
            Ni 101 -- Ni 113                 0.04        2.67710
             Al 50 -- Ni 62                  0.14        2.67782
             Al 60 -- Ni 34                  0.15        2.67799
             Al 7  -- Al 8                   0.22        2.67846
             Al 39 -- Al 44                  0.22        2.68380
            Ni 64  -- Ni 66                 -0.07        2.68395
             Al 54 -- Ni 36                  0.14        2.68542
            Ni 93  -- Ni 104                 0.04        2.68817
            Ni 21  -- Ni 68                  0.01        2.69057
            Ni 60  -- Ni 68                  0.02        2.69078
             Al 45 -- Al 46                  0.20        2.69104
             Al 56 -- Al 60                  0.22        2.69229
            Ni 17  -- Ni 66                 -0.04        2.69251
             Al 18 -- Ni 104                 0.14        2.69415
            Ni 21  -- Ni 22                  0.02        2.69451
            Ni 63  -- Ni 70                  0.05        2.69570
             Al 44 -- Al 61                  0.20        2.69642
            Ni 27  -- Ni 74                 -0.01        2.69646
             Al 22 -- Al 42                  0.20        2.69725
             Al 7  -- Al 56                  0.21        2.69785
             Al 36 -- Al 46                  0.23        2.69847
             Al 35 -- Al 36                  0.22        2.69982
             Al 64 -- Ni 49                  0.10        2.70245
             Al 31 -- Al 57                  0.22        2.70431
             Al 1  -- Al 2                   0.20        2.70489
             Al 25 -- Al 49                  0.27        2.70582
             Al 51 -- Al 52                  0.22        2.70681
             Al 12 -- Al 15                  0.20        2.70718
             Al 18 -- Al 27                  0.21        2.71055
             Al 33 -- Ni 38                  0.10        2.71270
             Al 1  -- Al 4                   0.24        2.72001
            Ni 153 -- Ni 156                 0.06        2.72039
             Al 19 -- Al 27                  0.19        2.72828
            Ni 30  -- Ni 32                  0.07        2.73221
             Al 25 -- Al 48                  0.21        2.73290
             Al 54 -- Al 55                  0.22        2.73412
             Al 20 -- Al 34                  0.22        2.73655
             Al 42 -- Al 43                  0.20        2.74215
             Al 25 -- Al 26                  0.20        2.74341
             Al 31 -- Al 32                  0.21        2.74372
             Al 2  -- Al 13                  0.17        2.74631
             Al 40 -- Al 59                  0.19        2.75021
             Al 6  -- Al 10                  0.19        2.75041
             Al 36 -- Al 39                  0.20        2.75750
             Al 29 -- Al 30                  0.20        2.76642
             Al 37 -- Al 42                  0.19        2.76755
             Al 13 -- Al 17                  0.19        2.76840
             Al 58 -- Ni 36                  0.11        2.77017
             Al 8  -- Al 9                   0.18        2.77246
             Al 23 -- Al 26                  0.17        2.77304
             Al 23 -- Al 41                  0.18        2.78245
             Al 34 -- Al 38                  0.20        2.78282
             Al 1  -- Al 17                  0.17        2.78395
             Al 10 -- Al 11                  0.17        2.78444
             Al 49 -- Al 50                  0.14        2.78574
             Al 40 -- Al 46                  0.21        2.78611
             Al 25 -- Al 50                  0.15        2.78775
             Al 58 -- Ni 82                  0.12        2.79014
             Al 1  -- Al 13                  0.20        2.79565
             Al 4  -- Al 64                  0.16        2.79878
             Al 43 -- Al 60                  0.17        2.79879
            Ni 24  -- Ni 63                  0.03        2.80636
             Al 48 -- Al 49                  0.18        2.80876
             Al 35 -- Al 59                  0.17        2.81038
             Al 44 -- Al 45                  0.15        2.81169
             Al 31 -- Al 34                  0.19        2.81400
             Al 39 -- Al 40                  0.19        2.81678
             Al 4  -- Al 13                  0.19        2.82570
             Al 20 -- Al 38                  0.16        2.82729
             Al 47 -- Al 48                  0.14        2.83270
             Al 23 -- Al 49                  0.14        2.83661
             Al 32 -- Al 34                  0.16        2.84371
             Al 39 -- Al 46                  0.16        2.85270
             Al 44 -- Al 46                  0.13        2.85381
             Al 20 -- Al 32                  0.16        2.85484
             Al 37 -- Al 60                  0.16        2.85766
             Al 4  -- Al 17                  0.15        2.86134
             Al 35 -- Al 40                  0.15        2.86764
             Al 31 -- Al 38                  0.14        2.86810
             Al 36 -- Al 40                  0.18        2.86945
             Al 26 -- Al 49                  0.15        2.89169
             Al 26 -- Al 48                  0.13        2.89630
             Al 37 -- Al 43                  0.09        2.98322
======================================================================
 

Writing analysis data to castep.castep_bin

Writing model to castep.check
 
 A BibTeX formatted list of references used in this run has been written to 
 castep.bib
 
Initialisation time =     13.10 s
Calculation time    =  24822.57 s
Finalisation time   =      3.38 s
Total time          =  24839.06 s
Peak Memory Use     = 8294012 kB
  
Overall parallel efficiency rating: Good (77%)                                  
  
Data was distributed by:-
G-vector (48-way); efficiency rating: Good (78%)                                
