 +-------------------------------------------------+
 |                                                 |
 |      CCC   AA    SSS  TTTTT  EEEEE  PPPP        |
 |     C     A  A  S       T    E      P   P       |
 |     C     AAAA   SS     T    EEE    PPPP        |
 |     C     A  A     S    T    E      P           |
 |      CCC  A  A  SSS     T    EEEEE  P           |
 |                                                 |
 +-------------------------------------------------+
 |                                                 |
 | Welcome to Academic Release CASTEP version 22.11|
 | Ab Initio Total Energy Program                  |
 |                                                 |
 | Authors:                                        |
 | M. Segall, M. Probert, C. Pickard, P. Hasnip,   |
 | S. Clark, K. Refson, J. R. Yates, M. Payne      |
 |                                                 |
 | Contributors:                                   |
 | P. Lindan, P. Haynes, J. White, V. Milman,      |
 | N. Govind, M. Gibson, P. Tulip, V. Cocula,      |
 | B. Montanari, D. Quigley, M. Glover,            |
 | L. Bernasconi, A. Perlov, M. Plummer,           |
 | E. McNellis, J. Meyer, J. Gale, D. Jochym       |
 | J. Aarons, B. Walker, R. Gillen, D. Jones       |
 | T. Green, I. J. Bush, C. J. Armstrong,          |
 | E. J. Higgins, E. L. Brown, M. S. McFly,        |
 | J. Wilkins, B-C. Shih, P. J. P. Byrne,          |
 | R. J. Maurer, J. C. Womack, J. Dziedzic,        |
 | A. Bartok-Partay, L. LeBlanc, T. K. Stenczel,   |
 | J. Kermode, S. Sturniolo, B. Shi, B. Durham     |
 | M. Evans, M. J. Smith                           |
 |                                                 |
 | Copyright (c) 2000 - 2021                       |
 |                                                 |
 |     Distributed under license from Cambridge    |
 |     Enterprise for academic use only.           |
 |                                                 |
 | Please cite                                     |
 |                                                 |
 |     "First principles methods using CASTEP"     |
 |                                                 |
 |         Zeitschrift fuer Kristallographie       |
 |           220(5-6) pp. 567-570 (2005)           |
 |                                                 |
 | S. J. Clark, M. D. Segall, C. J. Pickard,       |
 | P. J. Hasnip, M. J. Probert, K. Refson,         |
 | M. C. Payne                                     |
 |                                                 |
 |       in all publications arising from          |
 |              your use of CASTEP                 |
 |                                                 |
 +-------------------------------------------------+
 |                                                 |
 |              http://www.castep.org              |
 |                                                 |
 +-------------------------------------------------+
 
 
 
 Compiled for linux_x86_64_ifort on Wed, 18 Jan 2023 15:42:19 +0000
 from code version b807d1bba+  Castep221_branch  Wed Sep 14 11:18:35 2022 +0100
 Compiler: Intel Fortran 19.0.5.281; Optimisation: fast
 MATHLIBS: Intel MKL(2019.0.5) (LAPACK version 3.7.0)
 FFT Lib : mkl
 Fundamental constants values: CODATA 2014
 
 Run started: Wed, 26 Apr 2023 16:51:38 +0100
 
 Atomic calculation performed for Al: 1s2 2s2 2p6 3s2 3p1
 
 Converged in 52 iterations to an ae energy of -6606.982 eV
 
   ============================================================                
   | Pseudopotential Report - Date of generation 26-04-2023   |                
   ------------------------------------------------------------                
   | Element: Al Ionic charge:  3.00 Level of theory: RPBE    |                
   | Atomic Solver: Koelling-Harmon                           |                
   |                                                          |                
   |               Reference Electronic Structure             |                
   |         Orbital         Occupation         Energy        |                
   |            3s              2.000           -0.284        |                
   |            3p              1.000           -0.100        |                
   |                                                          |                
   |                 Pseudopotential Definition               |                
   |        Beta     l      e      Rc     scheme   norm       |                
   |          1      0   -0.284   2.192     qc      0         |                
   |          2      0    0.250   2.192     qc      0         |                
   |          3      1   -0.100   2.192     qc      0         |                
   |          4      1    0.250   2.192     qc      0         |                
   |          5      2    0.000   2.000     qc      0         |                
   |          6      2    0.250   2.000     qc      0         |                
   |         loc     3    0.000   2.192     pn      0         |                
   |                                                          |                
   | Augmentation charge Rinner = 1.398                       |                
   | Partial core correction Rc = 1.398                       |                
   ------------------------------------------------------------                
   | "3|2.2|2.2|1.4|4|5|5|30:31:32U2U2"                       |                
   ------------------------------------------------------------                
   |      Author: Chris J. Pickard, Cambridge University      |                
   ============================================================                
 
 Atomic calculation performed for Ni: 1s2 2s2 2p6 3s2 3p6 3d8 4s2
 
 Converged in 109 iterations to an ae energy of -41381.414 eV
 
   ============================================================                
   | Pseudopotential Report - Date of generation 26-04-2023   |                
   ------------------------------------------------------------                
   | Element: Ni Ionic charge: 10.00 Level of theory: RPBE    |                
   | Atomic Solver: Koelling-Harmon                           |                
   |                                                          |                
   |               Reference Electronic Structure             |                
   |         Orbital         Occupation         Energy        |                
   |            3d              8.000           -0.324        |                
   |            4s              2.000           -0.204        |                
   |                                                          |                
   |                 Pseudopotential Definition               |                
   |        Beta     l      e      Rc     scheme   norm       |                
   |          1      0   -0.204   2.401     qc      0         |                
   |          2      0    0.250   2.401     qc      0         |                
   |          3      1    0.000   2.401     qc      0         |                
   |          4      1    0.250   2.401     qc      0         |                
   |          5      2   -0.324   1.999     qc      0         |                
   |          6      2    0.250   1.999     qc      0         |                
   |         loc     3    0.000   2.401     pn      0         |                
   |                                                          |                
   | Augmentation charge Rinner = 1.001                       |                
   | Partial core correction Rc = 1.001                       |                
   ------------------------------------------------------------                
   | "3|2.4|2.4|1.0|8|9|10|40:41:32U2U2(qc=5.5)"              |                
   ------------------------------------------------------------                
   |      Author: Chris J. Pickard, Cambridge University      |                
   ============================================================                
 
 Pseudo atomic calculation performed for Al 3s2 3p1
 
 Converged in 13 iterations to a total energy of -107.6593 eV
 
 Pseudo atomic calculation performed for Ni 3d8 4s2
 
 Converged in 41 iterations to a total energy of -1369.7890 eV
 Calculation parallelised over 128 processes.
 Data is distributed by G-vector(128-way)

 ************************************ Title ************************************
 

 ***************************** General Parameters ******************************
  
 output verbosity                               : normal  (1)
 write checkpoint data to                       : castep.check
 type of calculation                            : geometry optimization
 stress calculation                             : off
 density difference calculation                 : off
 electron localisation func (ELF) calculation   : off
 Hirshfeld analysis                             : off
 polarisation (Berry phase) analysis            : off
 molecular orbital projected DOS                : off
 deltaSCF calculation                           : off
 unlimited duration calculation
 timing information                             : on
 memory usage estimate                          : on
 write extra output files                       : on
 write final potential to formatted file        : off
 write final density to formatted file          : off
 write BibTeX reference list                    : on
 write OTFG pseudopotential files               : on
 write electrostatic potential file             : on
 write bands file                               : on
 checkpoint writing                             : both castep_bin and check files
  
 output         length unit                     : A
 output           mass unit                     : amu
 output           time unit                     : ps
 output         charge unit                     : e
 output           spin unit                     : hbar/2
 output         energy unit                     : eV
 output          force unit                     : eV/A
 output       velocity unit                     : A/ps
 output       pressure unit                     : GPa
 output     inv_length unit                     : 1/A
 output      frequency unit                     : cm-1
 output force constant unit                     : eV/A**2
 output         volume unit                     : A**3
 output   IR intensity unit                     : (D/A)**2/amu
 output         dipole unit                     : D
 output         efield unit                     : eV/A/e
 output        entropy unit                     : J/mol/K
 output    efield chi2 unit                     : pm/V
  
 wavefunctions paging                           : none
 random number generator seed                   : randomised (165141569)
 data distribution                              : optimal for this architecture
 optimization strategy                          : maximize speed(+++)

 *********************** Exchange-Correlation Parameters ***********************
  
 using functional                               : revised Perdew Burke Ernzerhof
 relativistic treatment                         : Koelling-Harmon
 DFT+D: Semi-empirical dispersion correction    : off

 ************************* Pseudopotential Parameters **************************
  
 pseudopotential representation                 : reciprocal space
 <beta|phi> representation                      : reciprocal space
 spin-orbit coupling                            : off

 **************************** Basis Set Parameters *****************************
  
 plane wave basis set cut-off                   :   900.0000   eV
 size of standard grid                          :     1.7500
 size of   fine   gmax                          :    26.8966   1/A
 finite basis set correction                    : none

 **************************** Electronic Parameters ****************************
  
 number of  electrons                           :  2032.    
 net charge of system                           :  0.000    
 treating system as non-spin-polarized
 number of bands                                :       1128

 ********************* Electronic Minimization Parameters **********************
  
 Method: Treating system as metallic with density mixing treatment of electrons,
         and number of  SD  steps               :          1
         and number of  CG  steps               :          4
  
 total energy / atom convergence tol.           : 0.1000E-05   eV
 eigen-energy convergence tolerance             : 0.2261E-06   eV
 max force / atom convergence tol.              : ignored
 convergence tolerance window                   :          3   cycles
 max. number of SCF cycles                      :        200
 number of fixed-spin iterations                :         10
 smearing scheme                                : Gaussian
 smearing width                                 : 0.2000       eV
 Fermi energy convergence tolerance             : 0.2721E-13   eV
 periodic dipole correction                     : NONE
 periodically dump wavefunctions to             : castep.wvfn
 dump wavefunctions every                       :          1   SCF cycles

 ************************** Density Mixing Parameters **************************
  
 density-mixing scheme                          : Pulay
 max. length of mixing history                  :         20
 charge density mixing amplitude                : 0.8000    
 cut-off energy for mixing                      :  900.0       eV

 *********************** Population Analysis Parameters ************************
  
 Population analysis with cutoff                :  3.000       A
 Population analysis output                     : summary and pdos components

 ********************** Geometry Optimization Parameters ***********************
  
 optimization method                            : LBFGS
 max. no. of LBFGS updates                      : unbounded
 variable cell method                           : fixed basis quality
 max. number of steps                           :         30
 estimated bulk modulus                         :  500.0       GPa
 estimated <frequency>                          :  1668.       cm-1
 geom line minimiser                            : on
 with line minimiser tolerance                  :     0.4000
 total energy convergence tolerance             : 0.2000E-04   eV/atom
        max ionic |force| tolerance             : 0.5000E-01   eV/A
 max ionic |displacement| tolerance             : 0.1000E-02   A
   max |stress component| tolerance             : 0.1000       GPa
 convergence tolerance window                   :          2   steps
 backup results every                           :          5   steps
 write geom trajectory file                     : on

 *******************************************************************************
  
 
                           -------------------------------
                                      Unit Cell
                           -------------------------------
        Real Lattice(A)                      Reciprocal Lattice(1/A)
    14.4648280     0.0000000     0.0000000        0.434376773   0.000000000   0.000000000
     0.0000000    14.4648280     0.0000000        0.000000000   0.434376773   0.000000000
     0.0000000     0.0000000    14.4648280        0.000000000   0.000000000   0.434376773
 
                       Lattice parameters(A)       Cell Angles
                    a =     14.464828          alpha =   90.000000
                    b =     14.464828          beta  =   90.000000
                    c =     14.464828          gamma =   90.000000
 
                       Current cell volume =          3026.494030       A**3
                                   density =             4.169887   AMU/A**3
                                           =             6.924261     g/cm^3
 
                           -------------------------------
                                     Cell Contents
                           -------------------------------
                         Total number of ions in cell =  255
                      Total number of species in cell =    2
                        Max number of any one species =  181
 
            xxxxxxxxxxxxxxxxxxxxxxxxxxxxxxxxxxxxxxxxxxxxxxxxxxxxxxxxxxxx
            x  Element    Atom        Fractional coordinates of atoms  x
            x            Number           u          v          w      x
            x----------------------------------------------------------x
            x  Al           1         0.694884   0.937915   0.064668   x 
            x  Al           2         0.942387   0.938924   0.063346   x 
            x  Al           3         0.694216   0.189773   0.065288   x 
            x  Al           4         0.942124   0.188667   0.063578   x 
            x  Al           5         0.697686   0.440006   0.061593   x 
            x  Al           6         0.943611   0.438214   0.062711   x 
            x  Al           7         0.695607   0.687238   0.064390   x 
            x  Al           8         0.943700   0.688580   0.062667   x 
            x  Al           9         0.694190   0.936391   0.311546   x 
            x  Al          10         0.941994   0.938787   0.313308   x 
            x  Al          11         0.693219   0.190296   0.311106   x 
            x  Al          12         0.941675   0.188676   0.313410   x 
            x  Al          13         0.700584   0.440738   0.313667   x 
            x  Al          14         0.943550   0.438294   0.313551   x 
            x  Al          15         0.698138   0.686968   0.309406   x 
            x  Al          16         0.943697   0.688454   0.313252   x 
            x  Al          17         0.696935   0.936526   0.562468   x 
            x  Al          18         0.941109   0.939453   0.563195   x 
            x  Al          19         0.693855   0.189820   0.562017   x 
            x  Al          20         0.940697   0.188350   0.563151   x 
            x  Al          21         0.697278   0.439145   0.565154   x 
            x  Al          22         0.943136   0.437698   0.564058   x 
            x  Al          23         0.701010   0.687088   0.568713   x 
            x  Al          24         0.943378   0.688415   0.563933   x 
            x  Al          25         0.696017   0.938358   0.815041   x 
            x  Al          26         0.941578   0.939528   0.813828   x 
            x  Al          27         0.693214   0.189362   0.815606   x 
            x  Al          28         0.941430   0.188356   0.813542   x 
            x  Al          29         0.694390   0.438330   0.814098   x 
            x  Al          30         0.943184   0.437589   0.813559   x 
            x  Al          31         0.696111   0.687472   0.813112   x 
            x  Al          32         0.943679   0.688652   0.814091   x 
            x  Al          33         0.453035   0.811708   0.935121   x 
            x  Al          34         0.180805   0.686544   0.807699   x 
            x  Al          35         0.317149   0.819052   0.805593   x 
            x  Al          36         0.067486   0.810158   0.055461   x 
            x  Al          37         0.446034   0.564627   0.940520   x 
            x  Al          38         0.317573   0.559072   0.804895   x 
            x  Al          39         0.064559   0.325092   0.065985   x 
            x  Al          40         0.442381   0.320521   0.944799   x 
            x  Al          41         0.198659   0.318736   0.929884   x 
            x  Al          42         0.062839   0.180056   0.933417   x 
            x  Al          43         0.322269   0.818266   0.573051   x 
            x  Al          44         0.193786   0.435302   0.562901   x 
            x  Al          45         0.063020   0.435189   0.687760   x 
            x  Al          46         0.449718   0.314474   0.688123   x 
            x  Al          47         0.318403   0.297264   0.561670   x 
            x  Al          48         0.055693   0.195755   0.689195   x 
            x  Al          49         0.455431   0.058154   0.685675   x 
            x  Al          50         0.451992   0.186014   0.820714   x 
            x  Al          51         0.314774   0.062401   0.557307   x 
            x  Al          52         0.187471   0.065662   0.689159   x 
            x  Al          53         0.055969   0.933476   0.686949   x 
            x  Al          54         0.441902   0.692455   0.312379   x 
            x  Al          55         0.565022   0.688126   0.444958   x 
            x  Al          56         0.310273   0.685189   0.185355   x 
            x  Al          57         0.191938   0.815047   0.441790   x 
            x  Al          58         0.066385   0.806982   0.308421   x 
            x  Al          59         0.553598   0.440791   0.432620   x 
            x  Al          60         0.196767   0.574757   0.441450   x 
            x  Al          61         0.332421   0.437985   0.424049   x 
            x  Al          62         0.067216   0.566586   0.313571   x 
            x  Al          63         0.449856   0.192091   0.308554   x 
            x  Al          64         0.072205   0.321532   0.316279   x 
            x  Al          65         0.454194   0.056274   0.438078   x 
            x  Al          66         0.308932   0.052768   0.311701   x 
            x  Al          67         0.311292   0.815833   0.057312   x 
            x  Al          68         0.553468   0.442584   0.194687   x 
            x  Al          69         0.318245   0.441330   0.191213   x 
            x  Al          70         0.068339   0.562924   0.056554   x 
            x  Al          71         0.315259   0.055869   0.055201   x 
            x  Al          72         0.316466   0.057729   0.822709   x 
            x  Al          73         0.308461   0.194895   0.181003   x 
            x  Al          74         0.073039   0.180794   0.181523   x 
            x  Ni           1         0.692305   0.062841   0.188070   x 
            x  Ni           2         0.818474   0.938173   0.188281   x 
            x  Ni           3         0.817931   0.063958   0.064201   x 
            x  Ni           4         0.941960   0.064107   0.188566   x 
            x  Ni           5         0.691484   0.318860   0.187802   x 
            x  Ni           6         0.816850   0.189720   0.188535   x 
            x  Ni           7         0.818629   0.313847   0.063541   x 
            x  Ni           8         0.943024   0.313308   0.188323   x 
            x  Ni           9         0.692114   0.560612   0.187695   x 
            x  Ni          10         0.820404   0.439091   0.187679   x 
            x  Ni          11         0.819801   0.563673   0.062753   x 
            x  Ni          12         0.944307   0.563447   0.187789   x 
            x  Ni          13         0.693224   0.812668   0.187460   x 
            x  Ni          14         0.819733   0.687536   0.187226   x 
            x  Ni          15         0.818591   0.813043   0.063178   x 
            x  Ni          16         0.943085   0.813507   0.187943   x 
            x  Ni          17         0.573998   0.061609   0.561659   x 
            x  Ni          18         0.816792   0.937664   0.437126   x 
            x  Ni          19         0.816791   0.063729   0.312724   x 
            x  Ni          20         0.940900   0.063996   0.438091   x 
            x  Ni          21         0.690556   0.317822   0.437747   x 
            x  Ni          22         0.815480   0.189455   0.437242   x 
            x  Ni          23         0.818335   0.313895   0.313206   x 
            x  Ni          24         0.942270   0.313134   0.438579   x 
            x  Ni          25         0.691253   0.563452   0.439459   x 
            x  Ni          26         0.819282   0.439294   0.439122   x 
            x  Ni          27         0.820692   0.563933   0.313283   x 
            x  Ni          28         0.944099   0.563369   0.438854   x 
            x  Ni          29         0.693424   0.808939   0.438271   x 
            x  Ni          30         0.818843   0.687205   0.438571   x 
            x  Ni          31         0.819044   0.812620   0.312800   x 
            x  Ni          32         0.942685   0.813499   0.438259   x 
            x  Ni          33         0.692480   0.063958   0.688538   x 
            x  Ni          34         0.817600   0.939137   0.688931   x 
            x  Ni          35         0.815804   0.063974   0.562465   x 
            x  Ni          36         0.940999   0.064216   0.688367   x 
            x  Ni          37         0.691234   0.313827   0.689168   x 
            x  Ni          38         0.815970   0.188775   0.688670   x 
            x  Ni          39         0.817460   0.313407   0.563405   x 
            x  Ni          40         0.942099   0.312614   0.688660   x 
            x  Ni          41         0.693934   0.562298   0.689923   x 
            x  Ni          42         0.818795   0.437662   0.689537   x 
            x  Ni          43         0.820458   0.562723   0.564390   x 
            x  Ni          44         0.943860   0.562718   0.689263   x 
            x  Ni          45         0.695237   0.812626   0.689637   x 
            x  Ni          46         0.821054   0.687989   0.690404   x 
            x  Ni          47         0.819952   0.813306   0.563670   x 
            x  Ni          48         0.942917   0.814419   0.689137   x 
            x  Ni          49         0.692269   0.064065   0.941338   x 
            x  Ni          50         0.817508   0.938610   0.939499   x 
            x  Ni          51         0.816396   0.064360   0.814324   x 
            x  Ni          52         0.941799   0.064018   0.938601   x 
            x  Ni          53         0.692092   0.314888   0.939681   x 
            x  Ni          54         0.817049   0.188959   0.939393   x 
            x  Ni          55         0.817293   0.313090   0.813908   x 
            x  Ni          56         0.942632   0.312953   0.938218   x 
            x  Ni          57         0.692873   0.563674   0.938065   x 
            x  Ni          58         0.819176   0.438450   0.937934   x 
            x  Ni          59         0.819364   0.562819   0.814038   x 
            x  Ni          60         0.943771   0.563340   0.938033   x 
            x  Ni          61         0.692528   0.811861   0.939189   x 
            x  Ni          62         0.818689   0.688252   0.938402   x 
            x  Ni          63         0.818699   0.813627   0.814575   x 
            x  Ni          64         0.943021   0.813976   0.938466   x 
            x  Ni          65         0.062135   0.932951   0.184635   x 
            x  Ni          66         0.065751   0.059046   0.059570   x 
            x  Ni          67         0.193410   0.059818   0.182658   x 
            x  Ni          68         0.315295   0.935781   0.183846   x 
            x  Ni          69         0.187919   0.934826   0.058166   x 
            x  Ni          70         0.435691   0.065064   0.187527   x 
            x  Ni          71         0.567045   0.936406   0.188028   x 
            x  Ni          72         0.441099   0.188811   0.063621   x 
            x  Ni          73         0.444083   0.935366   0.062419   x 
            x  Ni          74         0.187883   0.191257   0.055587   x 
            x  Ni          75         0.188257   0.318022   0.186716   x 
            x  Ni          76         0.438824   0.314481   0.185803   x 
            x  Ni          77         0.568381   0.190308   0.186047   x 
            x  Ni          78         0.568427   0.318109   0.065929   x 
            x  Ni          79         0.313574   0.317718   0.061460   x 
            x  Ni          80         0.065715   0.445319   0.189433   x 
            x  Ni          81         0.190485   0.564344   0.186522   x 
            x  Ni          82         0.441221   0.442441   0.065265   x 
            x  Ni          83         0.314608   0.565963   0.059249   x 
            x  Ni          84         0.438285   0.568249   0.187660   x 
            x  Ni          85         0.567406   0.318119   0.311635   x 
            x  Ni          86         0.568674   0.563655   0.064968   x 
            x  Ni          87         0.063147   0.685806   0.182687   x 
            x  Ni          88         0.063573   0.685893   0.935336   x 
            x  Ni          89         0.189231   0.810633   0.183887   x 
            x  Ni          90         0.440321   0.690692   0.060934   x 
            x  Ni          91         0.190947   0.687726   0.056264   x 
            x  Ni          92         0.438839   0.810233   0.185615   x 
            x  Ni          93         0.567623   0.687451   0.188264   x 
            x  Ni          94         0.569115   0.812122   0.064071   x 
            x  Ni          95         0.317634   0.690034   0.929106   x 
            x  Ni          96         0.062668   0.937360   0.436829   x 
            x  Ni          97         0.067722   0.062183   0.309911   x 
            x  Ni          98         0.188833   0.060131   0.437945   x 
            x  Ni          99         0.317404   0.936187   0.439469   x 
            x  Ni         100         0.186573   0.933132   0.311663   x 
            x  Ni         101         0.572868   0.933798   0.436462   x 
            x  Ni         102         0.567687   0.062416   0.309620   x 
            x  Ni         103         0.443656   0.936370   0.311145   x 
            x  Ni         104         0.064969   0.188373   0.435548   x 
            x  Ni         105         0.196644   0.313109   0.439369   x 
            x  Ni         106         0.320383   0.180174   0.431178   x 
            x  Ni         107         0.316094   0.310568   0.310304   x 
            x  Ni         108         0.190056   0.187133   0.311100   x 
            x  Ni         109         0.441686   0.307982   0.437420   x 
            x  Ni         110         0.691717   0.062786   0.435611   x 
            x  Ni         111         0.570584   0.189080   0.435171   x 
            x  Ni         112         0.069767   0.441481   0.438736   x 
            x  Ni         113         0.191326   0.690920   0.313703   x 
            x  Ni         114         0.195436   0.443517   0.316937   x 
            x  Ni         115         0.439872   0.568992   0.439187   x 
            x  Ni         116         0.566639   0.566308   0.314618   x 
            x  Ni         117         0.316436   0.568897   0.313239   x 
            x  Ni         118         0.065894   0.690280   0.439165   x 
            x  Ni         119         0.319168   0.695593   0.441414   x 
            x  Ni         120         0.314832   0.814581   0.310978   x 
            x  Ni         121         0.442751   0.814523   0.439879   x 
            x  Ni         122         0.568388   0.809544   0.312981   x 
            x  Ni         123         0.063282   0.064355   0.565095   x 
            x  Ni         124         0.188648   0.939052   0.565358   x 
            x  Ni         125         0.574745   0.936284   0.688419   x 
            x  Ni         126         0.447288   0.939182   0.563258   x 
            x  Ni         127         0.064145   0.313637   0.560693   x 
            x  Ni         128         0.191643   0.308817   0.687841   x 
            x  Ni         129         0.189210   0.185718   0.563214   x 
            x  Ni         130         0.323221   0.178658   0.692058   x 
            x  Ni         131         0.570276   0.188894   0.688872   x 
            x  Ni         132         0.568877   0.314892   0.561165   x 
            x  Ni         133         0.447170   0.182902   0.562419   x 
            x  Ni         134         0.067744   0.562411   0.560915   x 
            x  Ni         135         0.190314   0.560906   0.685326   x 
            x  Ni         136         0.318253   0.432193   0.683554   x 
            x  Ni         137         0.316852   0.562606   0.563788   x 
            x  Ni         138         0.442719   0.561178   0.687298   x 
            x  Ni         139         0.569435   0.439125   0.686536   x 
            x  Ni         140         0.568138   0.562019   0.563331   x 
            x  Ni         141         0.440432   0.435106   0.560957   x 
            x  Ni         142         0.062832   0.687971   0.684219   x 
            x  Ni         143         0.063833   0.814223   0.561374   x 
            x  Ni         144         0.189556   0.815386   0.687220   x 
            x  Ni         145         0.316105   0.688592   0.690778   x 
            x  Ni         146         0.193046   0.691823   0.565871   x 
            x  Ni         147         0.445320   0.815981   0.690594   x 
            x  Ni         148         0.570416   0.687105   0.686844   x 
            x  Ni         149         0.570382   0.812140   0.564903   x 
            x  Ni         150         0.442778   0.690009   0.567322   x 
            x  Ni         151         0.061525   0.937955   0.934435   x 
            x  Ni         152         0.062249   0.062108   0.809139   x 
            x  Ni         153         0.189618   0.061367   0.935061   x 
            x  Ni         154         0.318771   0.932386   0.935393   x 
            x  Ni         155         0.318201   0.947232   0.688479   x 
            x  Ni         156         0.187543   0.938386   0.809085   x 
            x  Ni         157         0.444431   0.061972   0.939706   x 
            x  Ni         158         0.571853   0.937725   0.939986   x 
            x  Ni         159         0.571620   0.062813   0.815729   x 
            x  Ni         160         0.447988   0.939126   0.813684   x 
            x  Ni         161         0.061181   0.436690   0.934966   x 
            x  Ni         162         0.191804   0.441514   0.059630   x 
            x  Ni         163         0.318180   0.189137   0.938829   x 
            x  Ni         164         0.323812   0.310610   0.810840   x 
            x  Ni         165         0.190289   0.188184   0.812953   x 
            x  Ni         166         0.566527   0.062216   0.065925   x 
            x  Ni         167         0.567610   0.314599   0.816118   x 
            x  Ni         168         0.569058   0.190470   0.944403   x 
            x  Ni         169         0.062793   0.559180   0.811180   x 
            x  Ni         170         0.060719   0.314741   0.816639   x 
            x  Ni         171         0.192687   0.561910   0.930778   x 
            x  Ni         172         0.319526   0.441882   0.935282   x 
            x  Ni         173         0.191467   0.437177   0.807619   x 
            x  Ni         174         0.568603   0.440640   0.940343   x 
            x  Ni         175         0.568685   0.563614   0.812699   x 
            x  Ni         176         0.445281   0.439188   0.812858   x 
            x  Ni         177         0.063259   0.813183   0.811665   x 
            x  Ni         178         0.190557   0.811937   0.930376   x 
            x  Ni         179         0.444779   0.687170   0.811365   x 
            x  Ni         180         0.570322   0.686516   0.938925   x 
            x  Ni         181         0.571271   0.811800   0.812376   x 
            xxxxxxxxxxxxxxxxxxxxxxxxxxxxxxxxxxxxxxxxxxxxxxxxxxxxxxxxxxxx
 
 
                         No user defined ionic velocities
 
                           -------------------------------
                                   Details of Species
                           -------------------------------
 
                               Mass of species in AMU
                                    Al   26.9815400
                                    Ni   58.6934000
 
                          Electric Quadrupole Moment (Barn)
                                    Al    0.1466000 Isotope 27
                                    Ni    0.1620000 Isotope 61
 
                          Files used for pseudopotentials:
                                    Al 3|2.2|2.2|1.4|4|5|5|30:31:32U2U2
                                    Ni 3|2.4|2.4|1.0|8|9|10|40:41:32U2U2(qc=5.5)
 
                           -------------------------------
                              k-Points For BZ Sampling
                           -------------------------------
                       MP grid size for SCF calculation is  1  1  1
                            with an offset of   0.000  0.000  0.000
                       Number of kpoints used =             1
 
                           -------------------------------
                               Symmetry and Constraints
                           -------------------------------
 
                      Maximum deviation from symmetry =  0.00000         ANG
 
                      Number of symmetry operations   =           1
                      Number of ionic constraints     =           3
                      Point group of crystal =     1: C1, 1, 1
                      Space group of crystal =     1: P1, P 1
 
             Set iprint > 1 for details on symmetry rotations/translations
 
                         Centre of mass is constrained
             Set iprint > 1 for details of linear ionic constraints
 
                         Number of cell constraints= 6
                         Cell constraints are:  0 0 0 0 0 0
 
                         External pressure/stress (GPa)
                          0.00000   0.00000   0.00000
                                    0.00000   0.00000
                                              0.00000
 
+---------------- MEMORY AND SCRATCH DISK ESTIMATES PER PROCESS --------------+
|                                                     Memory          Disk    |
| Baseline code, static data and system overhead      855.0 MB         0.0 MB |
| BLAS internal memory storage                          0.0 MB         0.0 MB |
| Model and support data                              334.9 MB         0.0 MB |
| Electronic energy minimisation requirements          66.4 MB         0.0 MB |
| Force calculation requirements                        1.7 MB         0.0 MB |
|                                               ----------------------------- |
| Approx. total storage required per process         1256.4 MB         0.0 MB |
|                                                                             |
| Requirements will fluctuate during execution and may exceed these estimates |
+-----------------------------------------------------------------------------+
Calculating approximate eigenstates for fixed initial Hamiltonian
Cut-off for approx. calculation is  550.359 eV
Resetting cut-off to  900.000 eV
Calculating total energy with cut-off of  900.000 eV.
------------------------------------------------------------------------ <-- SCF
SCF loop      Energy           Fermi           Energy gain       Timer   <-- SCF
                               energy          per atom          (sec)   <-- SCF
------------------------------------------------------------------------ <-- SCF
Initial  -2.57932345E+005  0.00000000E+000                      1404.21  <-- SCF
      1  -2.57434417E+005  3.37671365E+000  -1.95265689E+000    1435.10  <-- SCF
      2  -2.57583053E+005  3.45753945E+000   5.82885100E-001    1466.49  <-- SCF
      3  -2.58696874E+005  9.06740507E+000   4.36792662E+000    1503.22  <-- SCF
      4  -2.58749480E+005  9.07068228E+000   2.06297664E-001    1541.62  <-- SCF
      5  -2.57691175E+005  6.59646847E+000  -4.15021663E+000    1590.21  <-- SCF
      6  -2.57831992E+005  6.56808512E+000   5.52224155E-001    1625.42  <-- SCF
      7  -2.57525751E+005  4.93527807E+000  -1.20094498E+000    1664.78  <-- SCF
      8  -2.57481176E+005  4.63171320E+000  -1.74801558E-001    1706.58  <-- SCF
      9  -2.57476770E+005  4.62489214E+000  -1.72796099E-002    1742.48  <-- SCF
     10  -2.57480063E+005  4.68691987E+000   1.29115517E-002    1777.68  <-- SCF
     11  -2.57473451E+005  4.66087372E+000  -2.59264095E-002    1812.46  <-- SCF
     12  -2.57475040E+005  4.67218405E+000   6.23040292E-003    1845.15  <-- SCF
     13  -2.57475706E+005  4.64587098E+000   2.61007851E-003    1880.76  <-- SCF
     14  -2.57472747E+005  4.61336681E+000  -1.16044852E-002    1914.79  <-- SCF
     15  -2.57472591E+005  4.61553893E+000  -6.09648652E-004    1952.93  <-- SCF
     16  -2.57472595E+005  4.61605918E+000   1.34459134E-005    1991.17  <-- SCF
     17  -2.57472347E+005  4.61291023E+000  -9.71026785E-004    2027.04  <-- SCF
     18  -2.57472366E+005  4.61249345E+000   7.48156311E-005    2059.34  <-- SCF
     19  -2.57472357E+005  4.61375023E+000  -3.63411176E-005    2095.07  <-- SCF
     20  -2.57472335E+005  4.61379120E+000  -8.60785239E-005    2135.58  <-- SCF
     21  -2.57472337E+005  4.61408018E+000   1.04974617E-005    2176.24  <-- SCF
     22  -2.57472335E+005  4.61456299E+000  -8.90022511E-006    2207.78  <-- SCF
     23  -2.57472334E+005  4.61448875E+000  -5.16531976E-006    2232.22  <-- SCF
     24  -2.57472334E+005  4.61440865E+000   3.77145351E-007    2263.87  <-- SCF
     25  -2.57472334E+005  4.61409654E+000  -4.30780154E-007    2286.26  <-- SCF
------------------------------------------------------------------------ <-- SCF
 
Final energy, E             =  -257468.3271607     eV
Final free energy (E-TS)    =  -257472.3338743     eV
(energies not corrected for finite basis set)
 
NB est. 0K energy (E-0.5TS)      =  -257470.3305175     eV
 

Writing analysis data to castep.castep_bin

Writing model to castep.check
 
+---------------- MEMORY AND SCRATCH DISK ESTIMATES PER PROCESS --------------+
|                                                     Memory          Disk    |
| Model and support data                              345.6 MB         0.0 MB |
| Electronic energy minimisation requirements          66.4 MB         0.0 MB |
| Geometry minimisation requirements                   80.6 MB         0.0 MB |
|                                               ----------------------------- |
| Approx. total storage required per process          492.6 MB         0.0 MB |
|                                                                             |
| Requirements will fluctuate during execution and may exceed these estimates |
+-----------------------------------------------------------------------------+
 
 
 ************************************** Forces **************************************
 *                                                                                  *
 *                           Cartesian components (eV/A)                            *
 * -------------------------------------------------------------------------------- *
 *                         x                    y                    z              *
 *                                                                                  *
 * Al              1     -0.14691              0.00948             -0.01067         *
 * Al              2     -0.86722              0.50240             -0.09016         *
 * Al              3     -0.08439             -0.04127             -0.01163         *
 * Al              4     -1.89209             -0.55947             -0.01451         *
 * Al              5     -0.11569             -0.00771             -0.12545         *
 * Al              6     -2.29732              0.70197              0.00747         *
 * Al              7     -0.17769              0.04864             -0.01481         *
 * Al              8     -1.83342             -0.18590             -0.09720         *
 * Al              9     -0.06423              0.00525              0.00549         *
 * Al             10     -0.58750              0.54547             -0.03285         *
 * Al             11     -0.15296              0.00254              0.01365         *
 * Al             12     -0.82389             -0.50720              0.39162         *
 * Al             13      0.07143             -0.01869              0.00417         *
 * Al             14     -1.61983              0.22208              0.10986         *
 * Al             15     -0.03204              0.00277             -0.10955         *
 * Al             16     -2.00944             -0.13760              0.02399         *
 * Al             17     -0.20151             -0.02727             -0.01368         *
 * Al             18     -1.23523              0.01617             -1.22638         *
 * Al             19     -0.12179             -0.03992              0.00786         *
 * Al             20     -1.08400             -0.03959             -1.17258         *
 * Al             21     -0.03942              0.01452              0.08734         *
 * Al             22     -0.96023              0.09736             -1.04463         *
 * Al             23      0.02572              0.03061              0.14045         *
 * Al             24     -0.31834             -0.06604             -0.14820         *
 * Al             25     -0.14851             -0.05085             -0.00226         *
 * Al             26     -1.33448             -0.05572              0.90049         *
 * Al             27     -0.17063             -0.00183              0.00271         *
 * Al             28     -2.29790             -0.05316              0.18204         *
 * Al             29     -0.17579              0.06027              0.01882         *
 * Al             30     -1.36052              0.06656              0.67323         *
 * Al             31     -0.18546              0.02454              0.00207         *
 * Al             32     -0.22466             -0.07558             -0.12231         *
 * Al             33      0.16739              0.09020              0.14407         *
 * Al             34      0.03597              0.10268              0.06901         *
 * Al             35      0.03234             -0.02290             -0.11581         *
 * Al             36      1.36062              0.39603              0.27776         *
 * Al             37      0.16612              0.06343              0.17283         *
 * Al             38      0.05684             -0.26017             -0.09191         *
 * Al             39      1.70898             -0.65204             -0.08157         *
 * Al             40      0.10101              0.05160              0.19453         *
 * Al             41      0.08695              0.07975              0.01885         *
 * Al             42      1.61667             -0.02036              0.26770         *
 * Al             43      0.17868             -0.17570             -0.03207         *
 * Al             44      0.03225             -0.02945              0.04733         *
 * Al             45      1.46119              0.11450              0.52492         *
 * Al             46      0.25143              0.27141             -0.07297         *
 * Al             47      0.09157             -0.10469             -0.09685         *
 * Al             48      2.46067             -0.11677             -0.16804         *
 * Al             49      0.16679             -0.16742             -0.20415         *
 * Al             50     -0.01470             -0.00350              0.15477         *
 * Al             51     -0.11436              0.07375             -0.08134         *
 * Al             52      0.01078             -0.08462              0.03887         *
 * Al             53      2.33949             -0.04181              0.05295         *
 * Al             54     -0.17884             -0.16223             -0.00867         *
 * Al             55     -0.00890              0.16378              0.12244         *
 * Al             56     -0.23456              0.05186             -0.04361         *
 * Al             57     -0.03651             -0.06190             -0.15622         *
 * Al             58      0.95408              0.75557             -0.16242         *
 * Al             59     -0.13068             -0.13302              0.03948         *
 * Al             60      0.02425              0.07808             -0.12666         *
 * Al             61      0.25118             -0.05999             -0.18538         *
 * Al             62      1.16952             -0.20314             -0.28623         *
 * Al             63      0.07262              0.42678              0.04511         *
 * Al             64      1.12850             -0.56200              0.18269         *
 * Al             65      0.30265             -0.06885              0.00209         *
 * Al             66     -0.12450             -0.20197             -0.07726         *
 * Al             67      0.05444              0.05794              0.11464         *
 * Al             68     -0.05336             -0.06425             -0.11384         *
 * Al             69     -0.04734              0.00299             -0.04289         *
 * Al             70      1.40458             -0.01362              0.15945         *
 * Al             71      0.13353             -0.00795             -0.03775         *
 * Al             72     -0.13942              0.00301              0.20642         *
 * Al             73     -0.03421              0.18714             -0.06194         *
 * Al             74      0.87297             -0.30969              0.69612         *
 * Ni              1      0.05859              0.02312             -0.07468         *
 * Ni              2      0.00178             -0.04004              0.00843         *
 * Ni              3      0.04611             -0.00682              0.03321         *
 * Ni              4     -0.03223              0.16224             -0.08332         *
 * Ni              5      0.13866              0.05434              0.12269         *
 * Ni              6      0.11293             -0.00210              0.02622         *
 * Ni              7     -0.03684              0.01899              0.00509         *
 * Ni              8      0.39323             -0.40384              0.08053         *
 * Ni              9      0.14097             -0.06113              0.17705         *
 * Ni             10     -0.01494              0.02285             -0.00304         *
 * Ni             11     -0.11283             -0.03251              0.01233         *
 * Ni             12     -0.48712              0.06380             -0.00530         *
 * Ni             13      0.02876             -0.05580              0.10118         *
 * Ni             14      0.09603              0.01108             -0.02633         *
 * Ni             15     -0.05460              0.01884             -0.03738         *
 * Ni             16     -0.39686             -0.29564             -0.06348         *
 * Ni             17      0.13605              0.04405              0.01206         *
 * Ni             18      0.13798              0.06384              0.00298         *
 * Ni             19      0.05357             -0.01303             -0.02687         *
 * Ni             20      0.00715              0.02881             -0.10080         *
 * Ni             21      0.15805              0.13522             -0.12899         *
 * Ni             22      0.09236             -0.02532              0.02914         *
 * Ni             23     -0.01738              0.03352              0.01732         *
 * Ni             24     -0.06554              0.09305             -0.37938         *
 * Ni             25      0.19394              0.03310             -0.03903         *
 * Ni             26      0.07361             -0.04406              0.02437         *
 * Ni             27     -0.15381             -0.03091              0.03768         *
 * Ni             28     -0.18507             -0.04872             -0.29509         *
 * Ni             29      0.08969             -0.16150              0.02399         *
 * Ni             30      0.13631             -0.00167              0.00465         *
 * Ni             31     -0.08828              0.00388              0.02792         *
 * Ni             32     -0.25697             -0.03146             -0.34298         *
 * Ni             33      0.17341             -0.05525              0.06240         *
 * Ni             34     -0.00195             -0.04344             -0.02020         *
 * Ni             35      0.07526              0.00903             -0.03678         *
 * Ni             36     -0.46033              0.01016             -0.10963         *
 * Ni             37      0.14477              0.07131             -0.11621         *
 * Ni             38     -0.04432              0.02605             -0.00881         *
 * Ni             39     -0.05383              0.02913             -0.01728         *
 * Ni             40     -0.67590              0.23272             -0.14260         *
 * Ni             41      0.04740              0.03621             -0.13900         *
 * Ni             42     -0.03843              0.04271             -0.00757         *
 * Ni             43     -0.13017             -0.00317              0.00656         *
 * Ni             44     -0.22108             -0.30256             -0.25203         *
 * Ni             45      0.08757             -0.08372             -0.13176         *
 * Ni             46     -0.06646             -0.02787              0.00359         *
 * Ni             47     -0.09918             -0.03593              0.00093         *
 * Ni             48     -0.55762              0.00806             -0.11750         *
 * Ni             49      0.15792             -0.00445              0.04118         *
 * Ni             50      0.01377             -0.05092              0.00474         *
 * Ni             51      0.08813             -0.01846              0.01461         *
 * Ni             52     -0.50762              0.12529             -0.08082         *
 * Ni             53      0.15973             -0.03616              0.08119         *
 * Ni             54      0.05987              0.04070              0.01921         *
 * Ni             55      0.01722              0.03523             -0.01664         *
 * Ni             56     -0.20763             -0.50167              0.55148         *
 * Ni             57      0.13207             -0.02455              0.02011         *
 * Ni             58     -0.00494             -0.00036             -0.02270         *
 * Ni             59     -0.03797              0.00770             -0.05332         *
 * Ni             60     -0.42261             -0.03269              0.21126         *
 * Ni             61      0.07836              0.04175             -0.02277         *
 * Ni             62      0.05214             -0.02653             -0.01361         *
 * Ni             63     -0.06430             -0.02688             -0.04312         *
 * Ni             64     -0.34277             -0.13923              0.18046         *
 * Ni             65      0.71240              0.50798              0.15720         *
 * Ni             66      0.20024              0.40420              0.20130         *
 * Ni             67      0.02193             -0.20023             -0.01788         *
 * Ni             68     -0.02718             -0.15654              0.18745         *
 * Ni             69      0.06312              0.33035              0.02826         *
 * Ni             70      0.05545              0.03191              0.20598         *
 * Ni             71     -0.19713              0.01012             -0.03983         *
 * Ni             72     -0.02455             -0.18826              0.07186         *
 * Ni             73      0.09464             -0.03987              0.02167         *
 * Ni             74     -0.15289              0.13651             -0.10627         *
 * Ni             75     -0.13418             -0.04718              0.06838         *
 * Ni             76      0.20609             -0.27362             -0.06037         *
 * Ni             77     -0.11893             -0.00005             -0.16106         *
 * Ni             78     -0.10565             -0.00466              0.07484         *
 * Ni             79      0.17322              0.01688              0.03654         *
 * Ni             80      0.38310             -0.38001             -0.04162         *
 * Ni             81     -0.11655             -0.07474              0.06872         *
 * Ni             82     -0.18866              0.00023             -0.01398         *
 * Ni             83      0.08985             -0.18029             -0.05036         *
 * Ni             84      0.22170              0.25154             -0.05884         *
 * Ni             85      0.10555              0.07791             -0.00726         *
 * Ni             86     -0.09880              0.01941              0.16041         *
 * Ni             87      0.74986              0.18518              0.16605         *
 * Ni             88      0.39223              0.13909              0.21213         *
 * Ni             89      0.12216              0.17730              0.00864         *
 * Ni             90      0.04173              0.11531              0.05504         *
 * Ni             91      0.36963             -0.08286             -0.11772         *
 * Ni             92      0.13163              0.11954              0.04861         *
 * Ni             93     -0.08582             -0.01462             -0.25241         *
 * Ni             94     -0.06975             -0.07941              0.23013         *
 * Ni             95     -0.20285             -0.03696              0.06726         *
 * Ni             96      0.57651              0.13523             -0.05522         *
 * Ni             97      0.07571              0.03459              0.17975         *
 * Ni             98     -0.30907              0.14381             -0.11122         *
 * Ni             99      0.12722              0.02803             -0.09342         *
 * Ni            100      0.03914              0.10508             -0.08580         *
 * Ni            101     -0.20595             -0.10355              0.08843         *
 * Ni            102     -0.11868             -0.05564             -0.10593         *
 * Ni            103     -0.16530             -0.02958             -0.03310         *
 * Ni            104      0.40574             -0.07875              0.03978         *
 * Ni            105      0.02494              0.01313              0.06518         *
 * Ni            106      0.06401             -0.18606             -0.14197         *
 * Ni            107     -0.09714             -0.14095              0.12800         *
 * Ni            108      0.05815             -0.07657              0.11724         *
 * Ni            109      0.08017             -0.10348              0.04601         *
 * Ni            110      0.10338              0.01702             -0.08814         *
 * Ni            111     -0.21267              0.08577              0.29001         *
 * Ni            112     -0.01074             -0.05252             -0.16394         *
 * Ni            113      0.07553              0.00499             -0.02455         *
 * Ni            114      0.23474             -0.01415             -0.10328         *
 * Ni            115      0.03446              0.17450              0.05672         *
 * Ni            116     -0.04537              0.02999             -0.06634         *
 * Ni            117      0.18342              0.00046              0.03167         *
 * Ni            118      0.08395             -0.06850             -0.16897         *
 * Ni            119     -0.10882             -0.03314              0.18267         *
 * Ni            120      0.26113              0.07778             -0.12550         *
 * Ni            121      0.30010              0.17040             -0.23597         *
 * Ni            122     -0.07807             -0.01201              0.06921         *
 * Ni            123      0.29767             -0.00757             -0.11957         *
 * Ni            124      0.06797              0.22649             -0.12031         *
 * Ni            125     -0.30810             -0.11041              0.09992         *
 * Ni            126     -0.00776             -0.01645              0.06293         *
 * Ni            127      0.41903             -0.02776              0.00891         *
 * Ni            128      0.05329              0.21747              0.07117         *
 * Ni            129     -0.05732             -0.19686             -0.18489         *
 * Ni            130      0.07687             -0.14433              0.23598         *
 * Ni            131     -0.33125             -0.04990             -0.01852         *
 * Ni            132     -0.05698             -0.02541             -0.13010         *
 * Ni            133     -0.00454              0.08914             -0.03031         *
 * Ni            134      0.19763             -0.08264              0.49267         *
 * Ni            135     -0.10117              0.21095             -0.09078         *
 * Ni            136      0.03732             -0.09328              0.04489         *
 * Ni            137     -0.03738             -0.05286             -0.24057         *
 * Ni            138      0.24339              0.04834             -0.21396         *
 * Ni            139     -0.19536              0.10276              0.21482         *
 * Ni            140     -0.20770             -0.01886              0.09580         *
 * Ni            141     -0.19861              0.21094              0.18346         *
 * Ni            142      0.44350              0.00460              0.08557         *
 * Ni            143      0.15107             -0.00175              0.31296         *
 * Ni            144     -0.17941             -0.16586              0.00788         *
 * Ni            145      0.02238             -0.15302              0.06400         *
 * Ni            146      0.01264              0.09722              0.19464         *
 * Ni            147      0.30596             -0.10648             -0.05068         *
 * Ni            148     -0.34170              0.04235              0.14887         *
 * Ni            149     -0.12556              0.00739             -0.01178         *
 * Ni            150     -0.08601             -0.10406              0.22187         *
 * Ni            151      0.83251              0.02968              0.17040         *
 * Ni            152      0.39971              0.21466             -0.02891         *
 * Ni            153     -0.25264             -0.26881              0.12449         *
 * Ni            154     -0.02071             -0.19664             -0.05855         *
 * Ni            155      0.04417              0.30023             -0.07178         *
 * Ni            156      0.08175              0.19092              0.19732         *
 * Ni            157      0.25682             -0.15122              0.03766         *
 * Ni            158     -0.27128              0.28182             -0.05905         *
 * Ni            159     -0.06951              0.00432              0.09003         *
 * Ni            160     -0.00497             -0.06928              0.00349         *
 * Ni            161      0.82776              0.33496              0.39932         *
 * Ni            162      0.33654             -0.09836             -0.02929         *
 * Ni            163      0.17689             -0.03786             -0.21314         *
 * Ni            164     -0.01185              0.09274             -0.21657         *
 * Ni            165      0.33098              0.00097             -0.06323         *
 * Ni            166     -0.05394              0.09977             -0.06361         *
 * Ni            167     -0.13457             -0.07018              0.01286         *
 * Ni            168     -0.16289             -0.16464             -0.09581         *
 * Ni            169      0.39821              0.08286             -0.04043         *
 * Ni            170      0.70717             -0.51241             -0.36905         *
 * Ni            171     -0.07211              0.02640              0.09722         *
 * Ni            172     -0.15215              0.16857             -0.01868         *
 * Ni            173      0.09827             -0.13722              0.12110         *
 * Ni            174     -0.00997             -0.11031             -0.11075         *
 * Ni            175     -0.07541             -0.09829             -0.17030         *
 * Ni            176      0.08241              0.20706             -0.08353         *
 * Ni            177      0.12362              0.22432              0.16393         *
 * Ni            178     -0.23912              0.10247             -0.01999         *
 * Ni            179      0.13070             -0.01402             -0.20799         *
 * Ni            180     -0.08202              0.01574             -0.09366         *
 * Ni            181      0.05316              0.03788             -0.17683         *
 *                                                                                  *
 ************************************************************************************
 LBFGS: finished iteration     0 with enthalpy= -2.57472334E+005 eV
  
 +-----------+-----------------+-----------------+------------+-----+ <-- LBFGS
 | Parameter |      value      |    tolerance    |    units   | OK? | <-- LBFGS
 +-----------+-----------------+-----------------+------------+-----+ <-- LBFGS
 |  dE/ion   |   0.000000E+000 |   2.000000E-005 |         eV | No  | <-- LBFGS
 |  |F|max   |   2.469168E+000 |   5.000000E-002 |       eV/A | No  | <-- LBFGS
 |  |dR|max  |   0.000000E+000 |   1.000000E-003 |          A | No  | <-- LBFGS
 +-----------+-----------------+-----------------+------------+-----+ <-- LBFGS
  

================================================================================
 Starting LBFGS iteration          1 ...
================================================================================
  
 +------------+-------------+-------------+-----------------+ <-- min LBFGS
 |    Step    |   lambda    |   F.delta'  |    enthalpy     | <-- min LBFGS
 +------------+-------------+-------------+-----------------+ <-- min LBFGS
 |  previous  |    0.000000 |    5.025958 |  -257472.333874 | <-- min LBFGS
 +------------+-------------+-------------+-----------------+ <-- min LBFGS
  

--------------------------------------------------------------------------------
 LBFGS: starting iteration         1 with trial guess (lambda=  1.000000)
--------------------------------------------------------------------------------
 
                           -------------------------------
                                     Cell Contents
                           -------------------------------
 
            xxxxxxxxxxxxxxxxxxxxxxxxxxxxxxxxxxxxxxxxxxxxxxxxxxxxxxxxxxxxxxxxx
            x  Element         Atom        Fractional coordinates of atoms  x
            x                 Number           u          v          w      x
            x---------------------------------------------------------------x
            x  Al                1         0.694864   0.937916   0.064666   x
            x  Al                2         0.942268   0.938992   0.063334   x
            x  Al                3         0.694204   0.189768   0.065287   x
            x  Al                4         0.941866   0.188590   0.063576   x
            x  Al                5         0.697670   0.440005   0.061576   x
            x  Al                6         0.943297   0.438310   0.062712   x
            x  Al                7         0.695582   0.687245   0.064388   x
            x  Al                8         0.943450   0.688555   0.062654   x
            x  Al                9         0.694182   0.936392   0.311547   x
            x  Al               10         0.941914   0.938861   0.313304   x
            x  Al               11         0.693198   0.190296   0.311108   x
            x  Al               12         0.941562   0.188607   0.313464   x
            x  Al               13         0.700593   0.440735   0.313667   x
            x  Al               14         0.943329   0.438324   0.313566   x
            x  Al               15         0.698134   0.686968   0.309391   x
            x  Al               16         0.943422   0.688436   0.313256   x
            x  Al               17         0.696907   0.936523   0.562466   x
            x  Al               18         0.940940   0.939455   0.563027   x
            x  Al               19         0.693839   0.189815   0.562018   x
            x  Al               20         0.940549   0.188345   0.562991   x
            x  Al               21         0.697273   0.439147   0.565165   x
            x  Al               22         0.943005   0.437711   0.563915   x
            x  Al               23         0.701014   0.687092   0.568732   x
            x  Al               24         0.943335   0.688406   0.563912   x
            x  Al               25         0.695997   0.938351   0.815041   x
            x  Al               26         0.941396   0.939520   0.813951   x
            x  Al               27         0.693191   0.189362   0.815606   x
            x  Al               28         0.941116   0.188349   0.813567   x
            x  Al               29         0.694366   0.438339   0.814101   x
            x  Al               30         0.942998   0.437598   0.813651   x
            x  Al               31         0.696086   0.687476   0.813113   x
            x  Al               32         0.943649   0.688642   0.814075   x
            x  Al               33         0.453057   0.811720   0.935140   x
            x  Al               34         0.180810   0.686558   0.807708   x
            x  Al               35         0.317154   0.819049   0.805577   x
            x  Al               36         0.067672   0.810212   0.055499   x
            x  Al               37         0.446057   0.564636   0.940543   x
            x  Al               38         0.317581   0.559036   0.804882   x
            x  Al               39         0.064792   0.325003   0.065974   x
            x  Al               40         0.442394   0.320528   0.944825   x
            x  Al               41         0.198671   0.318747   0.929886   x
            x  Al               42         0.063060   0.180053   0.933454   x
            x  Al               43         0.322293   0.818242   0.573047   x
            x  Al               44         0.193790   0.435298   0.562908   x
            x  Al               45         0.063220   0.435204   0.687831   x
            x  Al               46         0.449752   0.314511   0.688113   x
            x  Al               47         0.318416   0.297249   0.561657   x
            x  Al               48         0.056029   0.195739   0.689172   x
            x  Al               49         0.455453   0.058131   0.685647   x
            x  Al               50         0.451990   0.186014   0.820735   x
            x  Al               51         0.314758   0.062412   0.557296   x
            x  Al               52         0.187473   0.065651   0.689164   x
            x  Al               53         0.056289   0.933470   0.686956   x
            x  Al               54         0.441878   0.692433   0.312377   x
            x  Al               55         0.565021   0.688148   0.444975   x
            x  Al               56         0.310241   0.685196   0.185349   x
            x  Al               57         0.191933   0.815039   0.441769   x
            x  Al               58         0.066515   0.807085   0.308399   x
            x  Al               59         0.553580   0.440773   0.432625   x
            x  Al               60         0.196771   0.574767   0.441433   x
            x  Al               61         0.332456   0.437976   0.424024   x
            x  Al               62         0.067376   0.566558   0.313532   x
            x  Al               63         0.449866   0.192149   0.308560   x
            x  Al               64         0.072359   0.321455   0.316304   x
            x  Al               65         0.454235   0.056264   0.438079   x
            x  Al               66         0.308915   0.052741   0.311690   x
            x  Al               67         0.311299   0.815840   0.057327   x
            x  Al               68         0.553461   0.442575   0.194672   x
            x  Al               69         0.318238   0.441331   0.191207   x
            x  Al               70         0.068531   0.562922   0.056576   x
            x  Al               71         0.315277   0.055868   0.055196   x
            x  Al               72         0.316447   0.057729   0.822737   x
            x  Al               73         0.308456   0.194920   0.180995   x
            x  Al               74         0.073158   0.180751   0.181618   x
            x  Ni                1         0.692313   0.062844   0.188060   x
            x  Ni                2         0.818474   0.938168   0.188283   x
            x  Ni                3         0.817937   0.063957   0.064205   x
            x  Ni                4         0.941955   0.064129   0.188555   x
            x  Ni                5         0.691503   0.318868   0.187818   x
            x  Ni                6         0.816865   0.189720   0.188538   x
            x  Ni                7         0.818624   0.313850   0.063541   x
            x  Ni                8         0.943078   0.313252   0.188334   x
            x  Ni                9         0.692134   0.560604   0.187720   x
            x  Ni               10         0.820402   0.439094   0.187679   x
            x  Ni               11         0.819786   0.563669   0.062754   x
            x  Ni               12         0.944240   0.563455   0.187788   x
            x  Ni               13         0.693228   0.812661   0.187474   x
            x  Ni               14         0.819746   0.687537   0.187222   x
            x  Ni               15         0.818583   0.813045   0.063173   x
            x  Ni               16         0.943031   0.813466   0.187934   x
            x  Ni               17         0.574016   0.061615   0.561661   x
            x  Ni               18         0.816811   0.937673   0.437127   x
            x  Ni               19         0.816799   0.063728   0.312720   x
            x  Ni               20         0.940901   0.064000   0.438077   x
            x  Ni               21         0.690577   0.317840   0.437730   x
            x  Ni               22         0.815493   0.189451   0.437246   x
            x  Ni               23         0.818333   0.313900   0.313208   x
            x  Ni               24         0.942261   0.313147   0.438527   x
            x  Ni               25         0.691279   0.563457   0.439453   x
            x  Ni               26         0.819292   0.439287   0.439126   x
            x  Ni               27         0.820671   0.563928   0.313288   x
            x  Ni               28         0.944073   0.563363   0.438813   x
            x  Ni               29         0.693436   0.808917   0.438274   x
            x  Ni               30         0.818862   0.687205   0.438572   x
            x  Ni               31         0.819032   0.812620   0.312803   x
            x  Ni               32         0.942650   0.813495   0.438213   x
            x  Ni               33         0.692503   0.063950   0.688546   x
            x  Ni               34         0.817600   0.939131   0.688928   x
            x  Ni               35         0.815815   0.063975   0.562460   x
            x  Ni               36         0.940936   0.064217   0.688352   x
            x  Ni               37         0.691254   0.313837   0.689152   x
            x  Ni               38         0.815964   0.188778   0.688669   x
            x  Ni               39         0.817453   0.313411   0.563403   x
            x  Ni               40         0.942007   0.312646   0.688640   x
            x  Ni               41         0.693940   0.562303   0.689904   x
            x  Ni               42         0.818790   0.437668   0.689536   x
            x  Ni               43         0.820440   0.562723   0.564391   x
            x  Ni               44         0.943830   0.562676   0.689228   x
            x  Ni               45         0.695249   0.812615   0.689619   x
            x  Ni               46         0.821045   0.687985   0.690404   x
            x  Ni               47         0.819938   0.813301   0.563670   x
            x  Ni               48         0.942841   0.814421   0.689121   x
            x  Ni               49         0.692290   0.064065   0.941344   x
            x  Ni               50         0.817510   0.938603   0.939500   x
            x  Ni               51         0.816408   0.064357   0.814326   x
            x  Ni               52         0.941730   0.064035   0.938589   x
            x  Ni               53         0.692114   0.314883   0.939692   x
            x  Ni               54         0.817057   0.188965   0.939395   x
            x  Ni               55         0.817296   0.313095   0.813906   x
            x  Ni               56         0.942604   0.312884   0.938293   x
            x  Ni               57         0.692891   0.563670   0.938067   x
            x  Ni               58         0.819176   0.438450   0.937931   x
            x  Ni               59         0.819359   0.562820   0.814030   x
            x  Ni               60         0.943713   0.563335   0.938062   x
            x  Ni               61         0.692539   0.811866   0.939186   x
            x  Ni               62         0.818696   0.688248   0.938400   x
            x  Ni               63         0.818690   0.813624   0.814570   x
            x  Ni               64         0.942974   0.813957   0.938491   x
            x  Ni               65         0.062232   0.933020   0.184656   x
            x  Ni               66         0.065778   0.059101   0.059597   x
            x  Ni               67         0.193413   0.059791   0.182656   x
            x  Ni               68         0.315291   0.935759   0.183871   x
            x  Ni               69         0.187928   0.934871   0.058170   x
            x  Ni               70         0.435698   0.065069   0.187555   x
            x  Ni               71         0.567018   0.936408   0.188022   x
            x  Ni               72         0.441095   0.188785   0.063631   x
            x  Ni               73         0.444096   0.935360   0.062422   x
            x  Ni               74         0.187862   0.191275   0.055572   x
            x  Ni               75         0.188239   0.318015   0.186726   x
            x  Ni               76         0.438852   0.314443   0.185794   x
            x  Ni               77         0.568365   0.190308   0.186025   x
            x  Ni               78         0.568412   0.318108   0.065939   x
            x  Ni               79         0.313598   0.317720   0.061465   x
            x  Ni               80         0.065768   0.445267   0.189427   x
            x  Ni               81         0.190469   0.564334   0.186531   x
            x  Ni               82         0.441195   0.442441   0.065263   x
            x  Ni               83         0.314620   0.565938   0.059242   x
            x  Ni               84         0.438315   0.568284   0.187652   x
            x  Ni               85         0.567420   0.318129   0.311634   x
            x  Ni               86         0.568661   0.563658   0.064990   x
            x  Ni               87         0.063249   0.685832   0.182710   x
            x  Ni               88         0.063626   0.685912   0.935365   x
            x  Ni               89         0.189247   0.810657   0.183888   x
            x  Ni               90         0.440326   0.690707   0.060941   x
            x  Ni               91         0.190997   0.687714   0.056248   x
[...]
             Al 22 -- Ni 40                  0.20        2.59522
             Al 3  -- Ni 5                   0.19        2.59535
             Al 26 -- Ni 48                  0.19        2.59558
            Ni 161 -- Ni 162                 0.02        2.59566
            Ni 137 -- Ni 145                 0.13        2.59566
            Ni 70  -- Ni 166                 0.10        2.59568
            Ni 30  -- Ni 31                  0.02        2.59573
            Ni 164 -- Ni 165                 0.04        2.59615
            Ni 46  -- Ni 47                  0.02        2.59631
             Al 19 -- Ni 33                  0.19        2.59637
            Ni 71  -- Ni 122                 0.09        2.59655
            Ni 50  -- Ni 52                  0.06        2.59657
            Ni 131 -- Ni 159                -0.06        2.59663
            Ni 66  -- Ni 67                  0.07        2.59683
            Ni 9   -- Ni 14                  0.04        2.59705
            Ni 131 -- Ni 167                -0.04        2.59719
             Al 43 -- Ni 124                 0.17        2.59726
            Ni 52  -- Ni 151                 0.03        2.59744
            Ni 69  -- Ni 154                 0.00        2.59781
            Ni 68  -- Ni 100                 0.03        2.59804
            Ni 4   -- Ni 66                 -0.03        2.59812
             Al 71 -- Ni 70                  0.18        2.59816
            Ni 87  -- Ni 113                 0.05        2.59975
            Ni 40  -- Ni 55                  0.01        2.60045
            Ni 154 -- Ni 156                 0.02        2.60055
            Ni 132 -- Ni 133                 0.12        2.60110
            Ni 3   -- Ni 52                  0.01        2.60120
             Al 43 -- Ni 99                  0.18        2.60144
             Al 11 -- Ni 21                  0.19        2.60183
            Ni 125 -- Ni 159                 0.00        2.60185
             Al 20 -- Ni 36                  0.20        2.60198
             Al 14 -- Ni 8                   0.20        2.60227
             Al 12 -- Ni 104                 0.17        2.60254
             Al 64 -- Ni 80                  0.18        2.60256
             Al 41 -- Ni 170                 0.20        2.60269
            Ni 115 -- Ni 141                 0.04        2.60306
            Ni 159 -- Ni 168                -0.01        2.60308
             Al 68 -- Ni 78                  0.13        2.60323
            Ni 153 -- Ni 165                 0.00        2.60351
            Ni 161 -- Ni 173                 0.08        2.60354
            Ni 28  -- Ni 43                  0.06        2.60404
             Al 20 -- Ni 40                  0.21        2.60405
            Ni 2   -- Ni 4                   0.05        2.60441
             Al 60 -- Ni 134                 0.18        2.60464
            Ni 94  -- Ni 158                -0.00        2.60506
            Ni 19  -- Ni 20                  0.01        2.60537
             Al 56 -- Ni 120                 0.15        2.60558
            Ni 155 -- Ni 156                -0.02        2.60561
             Al 48 -- Ni 165                 0.17        2.60597
            Ni 17  -- Ni 101                -0.02        2.60606
            Ni 128 -- Ni 129                 0.00        2.60610
            Ni 90  -- Ni 95                  0.02        2.60640
             Al 45 -- Ni 127                 0.15        2.60664
             Al 40 -- Ni 164                 0.17        2.60692
             Al 38 -- Ni 179                 0.15        2.60706
             Al 40 -- Ni 72                  0.15        2.60709
             Al 17 -- Ni 33                  0.17        2.60721
             Al 69 -- Ni 162                 0.16        2.60723
            Ni 96  -- Ni 123                 0.11        2.60747
             Al 18 -- Ni 36                  0.19        2.60765
            Ni 106 -- Ni 133                -0.03        2.60781
             Al 40 -- Ni 168                 0.17        2.60784
            Ni 87  -- Ni 91                  0.07        2.60797
             Al 2  -- Ni 151                 0.16        2.60874
             Al 56 -- Ni 90                  0.14        2.60880
             Al 19 -- Ni 21                  0.19        2.60907
             Al 7  -- Ni 9                   0.18        2.60921
            Ni 113 -- Ni 119                 0.01        2.60978
             Al 10 -- Ni 16                  0.19        2.61015
             Al 70 -- Ni 60                  0.16        2.61065
             Al 69 -- Ni 79                  0.15        2.61070
            Ni 88  -- Ni 171                 0.02        2.61107
            Ni 16  -- Ni 87                 -0.02        2.61114
             Al 67 -- Ni 92                  0.16        2.61146
            Ni 165 -- Ni 170                 0.04        2.61171
            Ni 40  -- Ni 127                -0.03        2.61174
            Ni 124 -- Ni 143                 0.09        2.61182
             Al 34 -- Ni 95                  0.16        2.61218
             Al 55 -- Ni 116                 0.16        2.61224
             Al 12 -- Ni 97                  0.17        2.61284
             Al 30 -- Ni 44                  0.18        2.61287
             Al 17 -- Ni 110                 0.17        2.61322
            Ni 79  -- Ni 172                 0.07        2.61359
            Ni 56  -- Ni 161                -0.00        2.61413
            Ni 40  -- Ni 170                -0.01        2.61420
             Al 51 -- Ni 126                 0.11        2.61423
             Al 14 -- Ni 80                  0.16        2.61531
             Al 30 -- Ni 170                 0.16        2.61548
             Al 32 -- Ni 64                  0.18        2.61553
             Al 58 -- Ni 32                  0.16        2.61583
            Ni 8   -- Ni 23                  0.07        2.61601
            Ni 144 -- Ni 177                 0.03        2.61619
            Ni 121 -- Ni 150                -0.00        2.61633
             Al 48 -- Ni 123                 0.14        2.61637
             Al 19 -- Ni 110                 0.17        2.61645
            Ni 70  -- Ni 71                  0.08        2.61647
            Ni 89  -- Ni 91                 -0.03        2.61664
            Ni 105 -- Ni 108                 0.08        2.61691
            Ni 75  -- Ni 79                  0.04        2.61722
             Al 73 -- Ni 70                  0.16        2.61786
            Ni 20  -- Ni 22                  0.02        2.61790
             Al 22 -- Ni 42                  0.18        2.61800
             Al 8  -- Ni 87                  0.15        2.61802
            Ni 136 -- Ni 176                 0.03        2.61803
             Al 48 -- Al 52                  0.25        2.61817
             Al 57 -- Ni 120                 0.16        2.61829
            Ni 67  -- Ni 108                -0.05        2.61893
            Ni 158 -- Ni 181                -0.01        2.61903
             Al 43 -- Ni 146                 0.15        2.61905
            Ni 151 -- Ni 152                 0.13        2.61912
            Ni 154 -- Ni 157                -0.01        2.61936
             Al 26 -- Ni 152                 0.16        2.61942
             Al 4  -- Ni 66                  0.15        2.61944
            Ni 139 -- Ni 167                -0.02        2.62062
            Ni 98  -- Ni 99                 -0.01        2.62073
             Al 32 -- Ni 48                  0.18        2.62077
             Al 24 -- Ni 48                  0.18        2.62096
            Ni 22  -- Ni 24                  0.01        2.62129
             Al 65 -- Ni 106                 0.14        2.62137
             Al 23 -- Ni 149                 0.14        2.62153
             Al 58 -- Ni 96                  0.14        2.62186
            Ni 85  -- Ni 111                 0.05        2.62203
             Al 40 -- Ni 176                 0.15        2.62204
            Ni 88  -- Ni 169                 0.07        2.62289
            Ni 139 -- Ni 141                 0.10        2.62307
            Ni 24  -- Ni 39                  0.05        2.62317
             Al 60 -- Ni 114                 0.17        2.62319
            Ni 127 -- Ni 129                 0.09        2.62332
            Ni 131 -- Ni 132                 0.01        2.62340
             Al 30 -- Ni 40                  0.19        2.62369
            Ni 164 -- Ni 173                 0.06        2.62371
             Al 42 -- Ni 56                  0.17        2.62388
             Al 37 -- Ni 95                  0.17        2.62425
             Al 45 -- Ni 134                 0.16        2.62446
            Ni 88  -- Ni 177                 0.07        2.62489
            Ni 99  -- Ni 100                 0.04        2.62515
             Al 62 -- Ni 28                  0.15        2.62537
            Ni 75  -- Ni 108                -0.05        2.62546
             Al 18 -- Ni 123                 0.14        2.62611
             Al 10 -- Ni 96                  0.16        2.62618
            Ni 83  -- Ni 95                  0.09        2.62638
            Ni 142 -- Ni 169                 0.01        2.62654
             Al 34 -- Ni 145                 0.15        2.62710
            Ni 117 -- Ni 119                 0.04        2.62727
             Al 67 -- Ni 95                  0.17        2.62749
             Al 56 -- Ni 92                  0.13        2.62800
            Ni 127 -- Ni 128                -0.03        2.62831
             Al 60 -- Al 62                  0.25        2.62843
             Al 10 -- Ni 65                  0.15        2.62849
             Al 24 -- Ni 44                  0.19        2.62903
            Ni 52  -- Ni 152                 0.02        2.62968
             Al 9  -- Ni 29                  0.17        2.63013
            Ni 81  -- Ni 113                 0.00        2.63019
            Ni 28  -- Ni 134                 0.03        2.63022
             Al 68 -- Ni 9                   0.13        2.63050
            Ni 72  -- Ni 78                  0.10        2.63067
             Al 26 -- Ni 36                  0.17        2.63073
             Al 43 -- Ni 121                 0.16        2.63085
            Ni 86  -- Ni 90                  0.09        2.63106
             Al 38 -- Ni 95                  0.16        2.63162
            Ni 170 -- Ni 173                 0.07        2.63164
             Al 16 -- Ni 118                 0.14        2.63176
             Al 32 -- Ni 44                  0.17        2.63225
             Al 60 -- Ni 112                 0.16        2.63269
             Al 52 -- Al 53                  0.24        2.63321
            Ni 152 -- Ni 153                 0.06        2.63332
             Al 69 -- Ni 75                  0.16        2.63523
             Al 41 -- Ni 161                 0.17        2.63546
             Al 28 -- Ni 170                 0.14        2.63630
             Al 24 -- Ni 32                  0.17        2.63670
             Al 35 -- Ni 178                 0.16        2.63687
             Al 54 -- Al 55                  0.25        2.63755
            Ni 152 -- Ni 165                 0.04        2.63778
             Al 23 -- Ni 140                 0.13        2.63896
            Ni 102 -- Ni 111                -0.05        2.63921
            Ni 24  -- Ni 112                 0.02        2.63963
            Ni 135 -- Ni 136                 0.06        2.64018
             Al 44 -- Al 45                  0.24        2.64020
             Al 35 -- Ni 179                 0.12        2.64171
             Al 51 -- Al 52                  0.23        2.64172
            Ni 142 -- Ni 177                 0.01        2.64177
             Al 56 -- Al 67                  0.24        2.64186
            Ni 104 -- Ni 105                 0.06        2.64204
            Ni 74  -- Ni 75                 -0.02        2.64312
            Ni 7   -- Ni 8                   0.05        2.64344
             Al 74 -- Ni 8                   0.18        2.64411
             Al 20 -- Ni 123                 0.14        2.64414
            Ni 77  -- Ni 85                  0.04        2.64631
            Ni 81  -- Ni 91                 -0.01        2.64675
             Al 33 -- Ni 95                  0.15        2.64749
             Al 54 -- Al 56                  0.23        2.64765
            Ni 164 -- Ni 172                 0.01        2.64845
            Ni 70  -- Ni 73                  0.10        2.64922
             Al 36 -- Ni 16                  0.15        2.64964
             Al 13 -- Ni 116                 0.15        2.65140
             Al 57 -- Al 58                  0.24        2.65237
             Al 65 -- Ni 99                  0.14        2.65259
             Al 46 -- Al 47                  0.24        2.65291
            Ni 145 -- Ni 147                -0.00        2.65322
            Ni 118 -- Ni 134                 0.07        2.65369
             Al 23 -- Al 55                  0.24        2.65513
            Ni 128 -- Ni 170                 0.02        2.65723
             Al 51 -- Al 65                  0.24        2.65745
            Ni 56  -- Ni 58                  0.04        2.65775
             Al 20 -- Ni 127                 0.16        2.65794
             Al 6  -- Ni 8                   0.17        2.65844
            Ni 101 -- Ni 102                -0.00        2.65998
             Al 47 -- Ni 141                 0.14        2.65999
            Ni 105 -- Ni 106                 0.08        2.66001
            Ni 67  -- Ni 74                  0.01        2.66013
            Ni 118 -- Ni 146                 0.05        2.66184
            Ni 105 -- Ni 112                 0.02        2.66276
            Ni 153 -- Ni 154                 0.05        2.66304
             Al 69 -- Ni 83                  0.12        2.66352
            Ni 67  -- Ni 97                  0.05        2.66363
             Al 47 -- Ni 136                 0.16        2.66533
             Al 40 -- Al 50                  0.23        2.66552
            Ni 80  -- Ni 114                 0.07        2.66620
             Al 28 -- Ni 152                 0.12        2.66689
             Al 46 -- Ni 133                 0.15        2.66696
            Ni 80  -- Ni 162                 0.02        2.67001
             Al 6  -- Ni 80                  0.13        2.67069
             Al 6  -- Al 39                  0.22        2.67376
             Al 53 -- Ni 36                  0.14        2.67484
             Al 30 -- Al 45                  0.24        2.67691
             Al 70 -- Ni 12                  0.13        2.67788
            Ni 106 -- Ni 129                 0.04        2.67909
            Ni 55  -- Ni 56                  0.04        2.67911
             Al 14 -- Ni 112                 0.15        2.67962
            Ni 147 -- Ni 155                 0.03        2.67978
            Ni 153 -- Ni 163                -0.00        2.68060
             Al 59 -- Ni 21                  0.11        2.68074
             Al 6  -- Ni 161                 0.13        2.68220
             Al 52 -- Al 72                  0.20        2.68235
             Al 44 -- Al 60                  0.23        2.68474
             Al 16 -- Al 58                  0.23        2.68849
             Al 68 -- Ni 5                   0.10        2.68913
             Al 64 -- Ni 8                   0.15        2.69244
             Al 18 -- Al 53                  0.22        2.69534
             Al 59 -- Ni 25                  0.11        2.69716
             Al 10 -- Al 58                  0.22        2.70064
             Al 50 -- Al 72                  0.19        2.70152
             Al 43 -- Al 57                  0.24        2.70213
            Ni 8   -- Ni 10                  0.02        2.70383
             Al 71 -- Ni 74                  0.14        2.70385
             Al 48 -- Ni 36                  0.13        2.70454
             Al 16 -- Ni 87                  0.11        2.70870
             Al 61 -- Ni 105                 0.14        2.71012
             Al 28 -- Al 42                  0.20        2.71080
             Al 20 -- Al 48                  0.22        2.71345
             Al 16 -- Al 62                  0.21        2.71423
             Al 26 -- Al 53                  0.21        2.71774
             Al 33 -- Al 67                  0.20        2.71880
             Al 44 -- Al 47                  0.20        2.72171
             Al 46 -- Al 50                  0.19        2.72236
             Al 49 -- Al 50                  0.19        2.72402
             Al 28 -- Al 48                  0.21        2.72523
             Al 37 -- Al 38                  0.21        2.72766
             Al 14 -- Al 62                  0.21        2.73157
             Al 71 -- Al 73                  0.20        2.73248
             Al 39 -- Al 41                  0.18        2.73328
             Al 39 -- Al 74                  0.19        2.73575
            Ni 128 -- Ni 130                 0.09        2.73615
            Ni 129 -- Ni 130                 0.00        2.73950
            Ni 144 -- Ni 155                 0.02        2.73987
             Al 13 -- Al 59                  0.23        2.74316
             Al 22 -- Al 45                  0.20        2.74392
             Al 13 -- Al 68                  0.22        2.74440
             Al 15 -- Al 55                  0.21        2.74440
             Al 34 -- Al 35                  0.19        2.74866
             Al 63 -- Al 65                  0.18        2.74873
             Al 46 -- Ni 130                 0.12        2.75049
             Al 33 -- Al 35                  0.19        2.75083
             Al 14 -- Al 64                  0.20        2.75194
             Al 2  -- Al 36                  0.20        2.75232
             Al 34 -- Al 38                  0.19        2.75394
             Al 49 -- Al 51                  0.17        2.75611
             Al 61 -- Ni 137                 0.08        2.75923
             Al 8  -- Al 36                  0.19        2.76329
             Al 6  -- Al 70                  0.20        2.76406
             Al 63 -- Al 73                  0.16        2.77155
             Al 64 -- Al 74                  0.17        2.78133
             Al 8  -- Al 70                  0.18        2.78635
             Al 41 -- Al 42                  0.17        2.78809
             Al 65 -- Al 66                  0.17        2.80147
             Al 66 -- Al 73                  0.15        2.80333
             Al 5  -- Al 68                  0.15        2.81169
             Al 39 -- Al 42                  0.18        2.81225
             Al 4  -- Al 74                  0.15        2.81235
             Al 12 -- Al 74                  0.15        2.81301
             Al 4  -- Al 42                  0.15        2.81641
             Al 21 -- Al 59                  0.16        2.82404
             Al 12 -- Al 64                  0.14        2.85305
             Al 60 -- Al 61                  0.13        2.87191
             Al 49 -- Al 72                  0.11        2.87933
             Al 4  -- Al 39                  0.11        2.89169
             Al 63 -- Al 66                  0.10        2.90891
             Al 44 -- Al 61                  0.10        2.91637
             Al 47 -- Al 61                  0.10        2.91669
======================================================================
 

Writing analysis data to castep.castep_bin

Writing model to castep.check
 
 A BibTeX formatted list of references used in this run has been written to 
 castep.bib
 
Initialisation time =     24.60 s
Calculation time    =  12883.74 s
Finalisation time   =      4.96 s
Total time          =  12913.30 s
Peak Memory Use     = 3940232 kB
 
Overall parallel efficiency rating: Satisfactory (66%)
 
Data was distributed by:-
G-vector (128-way); efficiency rating: Satisfactory (68%)
