 +-------------------------------------------------+
 |                                                 |
 |      CCC   AA    SSS  TTTTT  EEEEE  PPPP        |
 |     C     A  A  S       T    E      P   P       |
 |     C     AAAA   SS     T    EEE    PPPP        |
 |     C     A  A     S    T    E      P           |
 |      CCC  A  A  SSS     T    EEEEE  P           |
 |                                                 |
 +-------------------------------------------------+
 |                                                 |
 | Welcome to Academic Release CASTEP version 22.11|
 | Ab Initio Total Energy Program                  |
 |                                                 |
 | Authors:                                        |
 | M. Segall, M. Probert, C. Pickard, P. Hasnip,   |
 | S. Clark, K. Refson, J. R. Yates, M. Payne      |
 |                                                 |
 | Contributors:                                   |
 | P. Lindan, P. Haynes, J. White, V. Milman,      |
 | N. Govind, M. Gibson, P. Tulip, V. Cocula,      |
 | B. Montanari, D. Quigley, M. Glover,            |
 | L. Bernasconi, A. Perlov, M. Plummer,           |
 | E. McNellis, J. Meyer, J. Gale, D. Jochym       |
 | J. Aarons, B. Walker, R. Gillen, D. Jones       |
 | T. Green, I. J. Bush, C. J. Armstrong,          |
 | E. J. Higgins, E. L. Brown, M. S. McFly,        |
 | J. Wilkins, B-C. Shih, P. J. P. Byrne,          |
 | R. J. Maurer, J. C. Womack, J. Dziedzic,        |
 | A. Bartok-Partay, L. LeBlanc, T. K. Stenczel,   |
 | J. Kermode, S. Sturniolo, B. Shi, B. Durham     |
 | M. Evans, M. J. Smith                           |
 |                                                 |
 | Copyright (c) 2000 - 2021                       |
 |                                                 |
 |     Distributed under license from Cambridge    |
 |     Enterprise for academic use only.           |
 |                                                 |
 | Please cite                                     |
 |                                                 |
 |     "First principles methods using CASTEP"     |
 |                                                 |
 |         Zeitschrift fuer Kristallographie       |
 |           220(5-6) pp. 567-570 (2005)           |
 |                                                 |
 | S. J. Clark, M. D. Segall, C. J. Pickard,       |
 | P. J. Hasnip, M. J. Probert, K. Refson,         |
 | M. C. Payne                                     |
 |                                                 |
 |       in all publications arising from          |
 |              your use of CASTEP                 |
 |                                                 |
 +-------------------------------------------------+
 |                                                 |
 |              http://www.castep.org              |
 |                                                 |
 +-------------------------------------------------+
 
 
 
 Compiled for linux_x86_64_ifort on Wed, 18 Jan 2023 15:42:19 +0000
 from code version b807d1bba+  Castep221_branch  Wed Sep 14 11:18:35 2022 +0100
 Compiler: Intel Fortran 19.0.5.281; Optimisation: fast
 MATHLIBS: Intel MKL(2019.0.5) (LAPACK version 3.7.0)
 FFT Lib : mkl
 Fundamental constants values: CODATA 2014
 
 Run started: Wed, 26 Apr 2023 18:27:13 +0100
 
 Atomic calculation performed for Al: 1s2 2s2 2p6 3s2 3p1
 
 Converged in 52 iterations to an ae energy of -6606.982 eV
 
   ============================================================                
   | Pseudopotential Report - Date of generation 26-04-2023   |                
   ------------------------------------------------------------                
   | Element: Al Ionic charge:  3.00 Level of theory: RPBE    |                
   | Atomic Solver: Koelling-Harmon                           |                
   |                                                          |                
   |               Reference Electronic Structure             |                
   |         Orbital         Occupation         Energy        |                
   |            3s              2.000           -0.284        |                
   |            3p              1.000           -0.100        |                
   |                                                          |                
   |                 Pseudopotential Definition               |                
   |        Beta     l      e      Rc     scheme   norm       |                
   |          1      0   -0.284   2.192     qc      0         |                
   |          2      0    0.250   2.192     qc      0         |                
   |          3      1   -0.100   2.192     qc      0         |                
   |          4      1    0.250   2.192     qc      0         |                
   |          5      2    0.000   2.000     qc      0         |                
   |          6      2    0.250   2.000     qc      0         |                
   |         loc     3    0.000   2.192     pn      0         |                
   |                                                          |                
   | Augmentation charge Rinner = 1.398                       |                
   | Partial core correction Rc = 1.398                       |                
   ------------------------------------------------------------                
   | "3|2.2|2.2|1.4|4|5|5|30:31:32U2U2"                       |                
   ------------------------------------------------------------                
   |      Author: Chris J. Pickard, Cambridge University      |                
   ============================================================                
 
 Atomic calculation performed for Ni: 1s2 2s2 2p6 3s2 3p6 3d8 4s2
 
 Converged in 109 iterations to an ae energy of -41381.414 eV
 
   ============================================================                
   | Pseudopotential Report - Date of generation 26-04-2023   |                
   ------------------------------------------------------------                
   | Element: Ni Ionic charge: 10.00 Level of theory: RPBE    |                
   | Atomic Solver: Koelling-Harmon                           |                
   |                                                          |                
   |               Reference Electronic Structure             |                
   |         Orbital         Occupation         Energy        |                
   |            3d              8.000           -0.324        |                
   |            4s              2.000           -0.204        |                
   |                                                          |                
   |                 Pseudopotential Definition               |                
   |        Beta     l      e      Rc     scheme   norm       |                
   |          1      0   -0.204   2.401     qc      0         |                
   |          2      0    0.250   2.401     qc      0         |                
   |          3      1    0.000   2.401     qc      0         |                
   |          4      1    0.250   2.401     qc      0         |                
   |          5      2   -0.324   1.999     qc      0         |                
   |          6      2    0.250   1.999     qc      0         |                
   |         loc     3    0.000   2.401     pn      0         |                
   |                                                          |                
   | Augmentation charge Rinner = 1.001                       |                
   | Partial core correction Rc = 1.001                       |                
   ------------------------------------------------------------                
   | "3|2.4|2.4|1.0|8|9|10|40:41:32U2U2(qc=5.5)"              |                
   ------------------------------------------------------------                
   |      Author: Chris J. Pickard, Cambridge University      |                
   ============================================================                
 
 Pseudo atomic calculation performed for Al 3s2 3p1
 
 Converged in 13 iterations to a total energy of -107.6593 eV
 
 Pseudo atomic calculation performed for Ni 3d8 4s2
 
 Converged in 41 iterations to a total energy of -1369.7890 eV
 Calculation parallelised over 128 processes.
 Data is distributed by G-vector(128-way)

 ************************************ Title ************************************
 

 ***************************** General Parameters ******************************
  
 output verbosity                               : normal  (1)
 write checkpoint data to                       : castep.check
 type of calculation                            : geometry optimization
 stress calculation                             : off
 density difference calculation                 : off
 electron localisation func (ELF) calculation   : off
 Hirshfeld analysis                             : off
 polarisation (Berry phase) analysis            : off
 molecular orbital projected DOS                : off
 deltaSCF calculation                           : off
 unlimited duration calculation
 timing information                             : on
 memory usage estimate                          : on
 write extra output files                       : on
 write final potential to formatted file        : off
 write final density to formatted file          : off
 write BibTeX reference list                    : on
 write OTFG pseudopotential files               : on
 write electrostatic potential file             : on
 write bands file                               : on
 checkpoint writing                             : both castep_bin and check files
  
 output         length unit                     : A
 output           mass unit                     : amu
 output           time unit                     : ps
 output         charge unit                     : e
 output           spin unit                     : hbar/2
 output         energy unit                     : eV
 output          force unit                     : eV/A
 output       velocity unit                     : A/ps
 output       pressure unit                     : GPa
 output     inv_length unit                     : 1/A
 output      frequency unit                     : cm-1
 output force constant unit                     : eV/A**2
 output         volume unit                     : A**3
 output   IR intensity unit                     : (D/A)**2/amu
 output         dipole unit                     : D
 output         efield unit                     : eV/A/e
 output        entropy unit                     : J/mol/K
 output    efield chi2 unit                     : pm/V
  
 wavefunctions paging                           : none
 random number generator seed                   : randomised (182716827)
 data distribution                              : optimal for this architecture
 optimization strategy                          : maximize speed(+++)

 *********************** Exchange-Correlation Parameters ***********************
  
 using functional                               : revised Perdew Burke Ernzerhof
 relativistic treatment                         : Koelling-Harmon
 DFT+D: Semi-empirical dispersion correction    : off

 ************************* Pseudopotential Parameters **************************
  
 pseudopotential representation                 : reciprocal space
 <beta|phi> representation                      : reciprocal space
 spin-orbit coupling                            : off

 **************************** Basis Set Parameters *****************************
  
 plane wave basis set cut-off                   :   900.0000   eV
 size of standard grid                          :     1.7500
 size of   fine   gmax                          :    26.8966   1/A
 finite basis set correction                    : none

 **************************** Electronic Parameters ****************************
  
 number of  electrons                           :  2130.    
 net charge of system                           :  0.000    
 treating system as non-spin-polarized
 number of bands                                :       1177

 ********************* Electronic Minimization Parameters **********************
  
 Method: Treating system as metallic with density mixing treatment of electrons,
         and number of  SD  steps               :          1
         and number of  CG  steps               :          4
  
 total energy / atom convergence tol.           : 0.1000E-05   eV
 eigen-energy convergence tolerance             : 0.2167E-06   eV
 max force / atom convergence tol.              : ignored
 convergence tolerance window                   :          3   cycles
 max. number of SCF cycles                      :        200
 number of fixed-spin iterations                :         10
 smearing scheme                                : Gaussian
 smearing width                                 : 0.2000       eV
 Fermi energy convergence tolerance             : 0.2721E-13   eV
 periodic dipole correction                     : NONE
 periodically dump wavefunctions to             : castep.wvfn
 dump wavefunctions every                       :          1   SCF cycles

 ************************** Density Mixing Parameters **************************
  
 density-mixing scheme                          : Pulay
 max. length of mixing history                  :         20
 charge density mixing amplitude                : 0.8000    
 cut-off energy for mixing                      :  900.0       eV

 *********************** Population Analysis Parameters ************************
  
 Population analysis with cutoff                :  3.000       A
 Population analysis output                     : summary and pdos components

 ********************** Geometry Optimization Parameters ***********************
  
 optimization method                            : LBFGS
 max. no. of LBFGS updates                      : unbounded
 variable cell method                           : fixed basis quality
 max. number of steps                           :         30
 estimated bulk modulus                         :  500.0       GPa
 estimated <frequency>                          :  1668.       cm-1
 geom line minimiser                            : on
 with line minimiser tolerance                  :     0.4000
 total energy convergence tolerance             : 0.2000E-04   eV/atom
        max ionic |force| tolerance             : 0.5000E-01   eV/A
 max ionic |displacement| tolerance             : 0.1000E-02   A
   max |stress component| tolerance             : 0.1000       GPa
 convergence tolerance window                   :          2   steps
 backup results every                           :          5   steps
 write geom trajectory file                     : on

 *******************************************************************************
  
 
                           -------------------------------
                                      Unit Cell
                           -------------------------------
        Real Lattice(A)                      Reciprocal Lattice(1/A)
    14.4648280     0.0000000     0.0000000        0.434376773   0.000000000   0.000000000
     0.0000000    14.4648280     0.0000000        0.000000000   0.434376773   0.000000000
     0.0000000     0.0000000    14.4648280        0.000000000   0.000000000   0.434376773
 
                       Lattice parameters(A)       Cell Angles
                    a =     14.464828          alpha =   90.000000
                    b =     14.464828          beta  =   90.000000
                    c =     14.464828          gamma =   90.000000
 
                       Current cell volume =          3026.494030       A**3
                                   density =             4.316581   AMU/A**3
                                           =             7.167851     g/cm^3
 
                           -------------------------------
                                     Cell Contents
                           -------------------------------
                         Total number of ions in cell =  255
                      Total number of species in cell =    2
                        Max number of any one species =  195
 
            xxxxxxxxxxxxxxxxxxxxxxxxxxxxxxxxxxxxxxxxxxxxxxxxxxxxxxxxxxxx
            x  Element    Atom        Fractional coordinates of atoms  x
            x            Number           u          v          w      x
            x----------------------------------------------------------x
            x  Al           1         0.946346   0.693573   0.561511   x 
            x  Al           2         0.673099   0.564674   0.438288   x 
            x  Al           3         0.808764   0.699247   0.435518   x 
            x  Al           4         0.421234   0.684387   0.808703   x 
            x  Al           5         0.439753   0.564643   0.440260   x 
            x  Al           6         0.417346   0.323875   0.441011   x 
            x  Al           7         0.560506   0.688128   0.682988   x 
            x  Al           8         0.298193   0.573861   0.563186   x 
            x  Al           9         0.940642   0.442864   0.566714   x 
            x  Al          10         0.811627   0.438927   0.433310   x 
            x  Al          11         0.557812   0.205658   0.687362   x 
            x  Al          12         0.419005   0.188969   0.566366   x 
            x  Al          13         0.180603   0.327866   0.439557   x 
            x  Al          14         0.944598   0.938388   0.563712   x 
            x  Al          15         0.693834   0.192130   0.559542   x 
            x  Al          16         0.556209   0.944365   0.452245   x 
            x  Al          17         0.181225   0.055508   0.441494   x 
            x  Al          18         0.182438   0.190569   0.575627   x 
            x  Al          19         0.814445   0.696213   0.200301   x 
            x  Al          20         0.307025   0.565206   0.308485   x 
            x  Al          21         0.177137   0.698120   0.313682   x 
            x  Al          22         0.682916   0.318717   0.193776   x 
            x  Al          23         0.554155   0.317216   0.318031   x 
            x  Al          24         0.176762   0.326518   0.184068   x 
            x  Al          25         0.942550   0.187417   0.322145   x 
            x  Al          26         0.809874   0.185265   0.197722   x 
            x  Al          27         0.554450   0.076193   0.313911   x 
            x  Al          28         0.317496   0.195270   0.189042   x 
            x  Al          29         0.178397   0.189293   0.312514   x 
            x  Al          30         0.945410   0.942627   0.316114   x 
            x  Al          31         0.935787   0.194626   0.559655   x 
            x  Al          32         0.801774   0.069352   0.057783   x 
            x  Al          33         0.798550   0.938016   0.193909   x 
            x  Al          34         0.554643   0.813287   0.311990   x 
            x  Al          35         0.310968   0.943440   0.201950   x 
            x  Al          36         0.935929   0.569092   0.939360   x 
            x  Al          37         0.805299   0.562978   0.811106   x 
            x  Al          38         0.685419   0.690524   0.067110   x 
            x  Al          39         0.559249   0.683430   0.934046   x 
            x  Al          40         0.176799   0.687476   0.065248   x 
            x  Al          41         0.688388   0.455251   0.068366   x 
            x  Al          42         0.818229   0.318390   0.059745   x 
            x  Al          43         0.559546   0.445710   0.938674   x 
            x  Al          44         0.942363   0.071818   0.930520   x 
            x  Al          45         0.434854   0.063348   0.936794   x 
            x  Al          46         0.565237   0.203218   0.941819   x 
            x  Al          47         0.303423   0.066099   0.060616   x 
            x  Al          48         0.942392   0.934422   0.065744   x 
            x  Al          49         0.801217   0.930878   0.931491   x 
            x  Al          50         0.435019   0.824042   0.936337   x 
            x  Al          51         0.307471   0.817518   0.066799   x 
            x  Al          52         0.805224   0.695704   0.683163   x 
            x  Al          53         0.810135   0.321010   0.813851   x 
            x  Al          54         0.561259   0.436350   0.677205   x 
            x  Al          55         0.426738   0.443197   0.815719   x 
            x  Al          56         0.296700   0.438142   0.690291   x 
            x  Al          57         0.802624   0.936085   0.692710   x 
            x  Al          58         0.799803   0.942631   0.440721   x 
            x  Al          59         0.940930   0.069655   0.700265   x 
            x  Al          60         0.564559   0.062635   0.807486   x 
            x  Ni           1         0.057971   0.817540   0.816531   x 
            x  Ni           2         0.057278   0.941347   0.691885   x 
            x  Ni           3         0.057596   0.066410   0.817056   x 
            x  Ni           4         0.056749   0.191327   0.692869   x 
            x  Ni           5         0.056231   0.317045   0.817769   x 
            x  Ni           6         0.057338   0.443073   0.691864   x 
            x  Ni           7         0.057088   0.568329   0.815667   x 
            x  Ni           8         0.057478   0.693705   0.691507   x 
            x  Ni           9         0.058070   0.817968   0.064947   x 
            x  Ni          10         0.058516   0.942181   0.941095   x 
            x  Ni          11         0.060155   0.066999   0.065051   x 
            x  Ni          12         0.058009   0.191853   0.941026   x 
            x  Ni          13         0.055918   0.318288   0.063319   x 
            x  Ni          14         0.055830   0.442952   0.939564   x 
            x  Ni          15         0.054291   0.567544   0.064201   x 
            x  Ni          16         0.056308   0.692885   0.939789   x 
            x  Ni          17         0.055382   0.818722   0.314032   x 
            x  Ni          18         0.057978   0.943076   0.189468   x 
            x  Ni          19         0.058402   0.065552   0.315208   x 
            x  Ni          20         0.058682   0.192967   0.188746   x 
            x  Ni          21         0.059497   0.318536   0.314631   x 
            x  Ni          22         0.053654   0.444400   0.188552   x 
            x  Ni          23         0.055187   0.569761   0.314577   x 
            x  Ni          24         0.055316   0.693397   0.189445   x 
            x  Ni          25         0.056450   0.817696   0.566437   x 
            x  Ni          26         0.055789   0.940286   0.440983   x 
            x  Ni          27         0.059776   0.065680   0.567040   x 
            x  Ni          28         0.065892   0.191527   0.442292   x 
            x  Ni          29         0.059428   0.317548   0.565685   x 
            x  Ni          30         0.055532   0.444883   0.440177   x 
            x  Ni          31         0.057012   0.569790   0.564936   x 
            x  Ni          32         0.055291   0.695087   0.439677   x 
            x  Ni          33         0.182971   0.941054   0.815889   x 
            x  Ni          34         0.307496   0.817267   0.815422   x 
            x  Ni          35         0.307456   0.940523   0.690961   x 
            x  Ni          36         0.181023   0.817787   0.690810   x 
            x  Ni          37         0.434847   0.941963   0.811012   x 
            x  Ni          38         0.554271   0.810242   0.811554   x 
            x  Ni          39         0.558842   0.940286   0.686013   x 
            x  Ni          40         0.431256   0.813894   0.689619   x 
            x  Ni          41         0.680838   0.937436   0.811338   x 
            x  Ni          42         0.807819   0.811657   0.811701   x 
            x  Ni          43         0.680500   0.813633   0.686486   x 
            x  Ni          44         0.933575   0.939946   0.814768   x 
            x  Ni          45         0.934221   0.195805   0.813429   x 
            x  Ni          46         0.937161   0.815926   0.689153   x 
            x  Ni          47         0.182440   0.192177   0.815969   x 
            x  Ni          48         0.308373   0.066422   0.817213   x 
            x  Ni          49         0.306825   0.192829   0.695408   x 
            x  Ni          50         0.181515   0.064936   0.693665   x 
            x  Ni          51         0.438085   0.192688   0.816698   x 
            x  Ni          52         0.684983   0.070768   0.688757   x 
            x  Ni          53         0.432828   0.069116   0.692591   x 
            x  Ni          54         0.682672   0.197049   0.812256   x 
            x  Ni          55         0.934591   0.319334   0.937895   x 
            x  Ni          56         0.811657   0.192616   0.688885   x 
            x  Ni          57         0.181090   0.441621   0.817935   x 
            x  Ni          58         0.306572   0.317400   0.817370   x 
            x  Ni          59         0.177713   0.316774   0.692865   x 
            x  Ni          60         0.558855   0.324539   0.813230   x 
            x  Ni          61         0.429543   0.319837   0.688018   x 
            x  Ni          62         0.684006   0.442796   0.810704   x 
            x  Ni          63         0.936066   0.317799   0.688254   x 
            x  Ni          64         0.810326   0.443928   0.685024   x 
            x  Ni          65         0.933364   0.445782   0.812189   x 
            x  Ni          66         0.183280   0.693084   0.816606   x 
            x  Ni          67         0.301945   0.564781   0.813654   x 
            x  Ni          68         0.303007   0.691965   0.688308   x 
            x  Ni          69         0.178031   0.568382   0.690152   x 
            x  Ni          70         0.427520   0.562595   0.686391   x 
            x  Ni          71         0.556000   0.562020   0.806602   x 
            x  Ni          72         0.424634   0.442748   0.566354   x 
            x  Ni          73         0.556492   0.564510   0.564119   x 
            x  Ni          74         0.682432   0.687414   0.810321   x 
            x  Ni          75         0.934846   0.570326   0.686739   x 
            x  Ni          76         0.684936   0.565777   0.682927   x 
            x  Ni          77         0.932936   0.688891   0.812347   x 
            x  Ni          78         0.811966   0.568889   0.556745   x 
            x  Ni          79         0.185324   0.941603   0.067738   x 
            x  Ni          80         0.307619   0.941545   0.939863   x 
            x  Ni          81         0.182171   0.816603   0.942217   x 
            x  Ni          82         0.431536   0.942735   0.065174   x 
            x  Ni          83         0.556857   0.814914   0.063075   x 
            x  Ni          84         0.560184   0.941225   0.937273   x 
            x  Ni          85         0.683737   0.939749   0.062720   x 
            x  Ni          86         0.809122   0.815745   0.066140   x 
            x  Ni          87         0.679055   0.810166   0.938502   x 
            x  Ni          88         0.936490   0.814399   0.938657   x 
            x  Ni          89         0.185088   0.193888   0.067295   x 
            x  Ni          90         0.309452   0.192295   0.939382   x 
            x  Ni          91         0.181834   0.067542   0.939575   x 
            x  Ni          92         0.434688   0.192799   0.060422   x 
            x  Ni          93         0.559381   0.069194   0.062275   x 
            x  Ni          94         0.687415   0.197371   0.067351   x 
            x  Ni          95         0.680625   0.067990   0.936431   x 
            x  Ni          96         0.807111   0.193320   0.936572   x 
            x  Ni          97         0.807619   0.066068   0.815655   x 
            x  Ni          98         0.931256   0.187990   0.064430   x 
            x  Ni          99         0.181491   0.445742   0.062595   x 
            x  Ni         100         0.308075   0.318161   0.064953   x 
            x  Ni         101         0.306936   0.442496   0.941001   x 
            x  Ni         102         0.180960   0.316899   0.942013   x 
            x  Ni         103         0.433806   0.444873   0.062787   x 
            x  Ni         104         0.562327   0.323051   0.065758   x 
            x  Ni         105         0.434508   0.320064   0.940190   x 
            x  Ni         106         0.684538   0.567994   0.938847   x 
            x  Ni         107         0.687433   0.324713   0.942000   x 
            x  Ni         108         0.933314   0.445667   0.067859   x 
            x  Ni         109         0.809636   0.446863   0.939771   x 
            x  Ni         110         0.306477   0.569320   0.065228   x 
            x  Ni         111         0.307580   0.693732   0.941146   x 
            x  Ni         112         0.179987   0.568128   0.940404   x 
            x  Ni         113         0.433061   0.693068   0.061440   x 
            x  Ni         114         0.558300   0.568619   0.065543   x 
            x  Ni         115         0.431413   0.567100   0.937796   x 
            x  Ni         116         0.813167   0.572256   0.068195   x 
            x  Ni         117         0.808457   0.691524   0.938006   x 
            x  Ni         118         0.934746   0.693560   0.067682   x 
            x  Ni         119         0.182697   0.940378   0.314897   x 
            x  Ni         120         0.309607   0.815347   0.315239   x 
            x  Ni         121         0.182160   0.817546   0.189217   x 
            x  Ni         122         0.439699   0.943872   0.318552   x 
            x  Ni         123         0.433643   0.816251   0.440370   x 
            x  Ni         124         0.558384   0.943265   0.188896   x 
            x  Ni         125         0.432799   0.817459   0.189175   x 
            x  Ni         126         0.680776   0.814236   0.190460   x 
            x  Ni         127         0.937293   0.819586   0.192688   x 
            x  Ni         128         0.308964   0.068998   0.316062   x 
            x  Ni         129         0.185373   0.068281   0.190576   x 
            x  Ni         130         0.430254   0.196718   0.320300   x 
            x  Ni         131         0.556257   0.195442   0.188785   x 
            x  Ni         132         0.432721   0.068530   0.188106   x 
            x  Ni         133         0.680926   0.192560   0.317577   x 
            x  Ni         134         0.681312   0.068524   0.189461   x 
            x  Ni         135         0.809001   0.061096   0.316067   x 
            x  Ni         136         0.933146   0.061666   0.188133   x 
            x  Ni         137         0.180424   0.445576   0.312023   x 
            x  Ni         138         0.301353   0.318695   0.311649   x 
            x  Ni         139         0.307155   0.442648   0.186162   x 
            x  Ni         140         0.431265   0.442510   0.314571   x 
            x  Ni         141         0.559792   0.443165   0.189690   x 
            x  Ni         142         0.433987   0.320401   0.189614   x 
            x  Ni         143         0.682026   0.441071   0.316666   x 
            x  Ni         144         0.810741   0.313313   0.314125   x 
            x  Ni         145         0.809273   0.442135   0.193333   x 
            x  Ni         146         0.936331   0.441405   0.315858   x 
            x  Ni         147         0.933915   0.313700   0.192650   x 
            x  Ni         148         0.305627   0.692560   0.188695   x 
            x  Ni         149         0.179145   0.567771   0.190147   x 
            x  Ni         150         0.431517   0.689513   0.314032   x 
            x  Ni         151         0.555816   0.565648   0.315106   x 
            x  Ni         152         0.557557   0.691345   0.189102   x 
            x  Ni         153         0.432428   0.566637   0.188941   x 
            x  Ni         154         0.682437   0.692647   0.316638   x 
            x  Ni         155         0.808705   0.568224   0.320048   x 
            x  Ni         156         0.685946   0.570375   0.194115   x 
            x  Ni         157         0.937225   0.695198   0.319015   x 
            x  Ni         158         0.935336   0.568889   0.195419   x 
            x  Ni         159         0.183721   0.939493   0.566561   x 
            x  Ni         160         0.307449   0.815460   0.563382   x 
            x  Ni         161         0.310179   0.940737   0.438484   x 
            x  Ni         162         0.181342   0.818819   0.439608   x 
            x  Ni         163         0.430127   0.943749   0.567756   x 
            x  Ni         164         0.554718   0.815712   0.565387   x 
            x  Ni         165         0.673201   0.944134   0.317901   x 
            x  Ni         166         0.429880   0.689280   0.564944   x 
            x  Ni         167         0.683679   0.944492   0.566601   x 
            x  Ni         168         0.811587   0.818452   0.562520   x 
            x  Ni         169         0.808248   0.823672   0.317356   x 
            x  Ni         170         0.678222   0.818405   0.439949   x 
            x  Ni         171         0.938260   0.061882   0.441862   x 
            x  Ni         172         0.938819   0.820620   0.439680   x 
            x  Ni         173         0.303682   0.064933   0.567095   x 
            x  Ni         174         0.295782   0.191729   0.440620   x 
            x  Ni         175         0.552810   0.203712   0.451206   x 
            x  Ni         176         0.431888   0.069733   0.442697   x 
            x  Ni         177         0.686732   0.317611   0.683769   x 
            x  Ni         178         0.815887   0.062871   0.569283   x 
            x  Ni         179         0.812708   0.188184   0.437144   x 
            x  Ni         180         0.679105   0.069678   0.441799   x 
            x  Ni         181         0.179984   0.445270   0.565340   x 
            x  Ni         182         0.300064   0.317821   0.565832   x 
            x  Ni         183         0.304098   0.450169   0.439230   x 
            x  Ni         184         0.554592   0.432631   0.447317   x 
            x  Ni         185         0.556487   0.074693   0.569681   x 
            x  Ni         186         0.688087   0.440571   0.559007   x 
            x  Ni         187         0.813900   0.318507   0.561486   x 
            x  Ni         188         0.684898   0.316681   0.439035   x 
            x  Ni         189         0.938996   0.318125   0.438809   x 
            x  Ni         190         0.180047   0.695504   0.563120   x 
            x  Ni         191         0.307177   0.689514   0.436552   x 
            x  Ni         192         0.178780   0.570005   0.435930   x 
            x  Ni         193         0.556896   0.692732   0.440475   x 
            x  Ni         194         0.684700   0.691060   0.559295   x 
            x  Ni         195         0.938482   0.567188   0.439288   x 
            xxxxxxxxxxxxxxxxxxxxxxxxxxxxxxxxxxxxxxxxxxxxxxxxxxxxxxxxxxxx
 
 
                         No user defined ionic velocities
 
                           -------------------------------
                                   Details of Species
                           -------------------------------
 
                               Mass of species in AMU
                                    Al   26.9815400
                                    Ni   58.6934000
 
                          Electric Quadrupole Moment (Barn)
                                    Al    0.1466000 Isotope 27
                                    Ni    0.1620000 Isotope 61
 
                          Files used for pseudopotentials:
                                    Al 3|2.2|2.2|1.4|4|5|5|30:31:32U2U2
                                    Ni 3|2.4|2.4|1.0|8|9|10|40:41:32U2U2(qc=5.5)
 
                           -------------------------------
                              k-Points For BZ Sampling
                           -------------------------------
                       MP grid size for SCF calculation is  1  1  1
                            with an offset of   0.000  0.000  0.000
                       Number of kpoints used =             1
 
                           -------------------------------
                               Symmetry and Constraints
                           -------------------------------
 
                      Maximum deviation from symmetry =  0.00000         ANG
 
                      Number of symmetry operations   =           1
                      Number of ionic constraints     =           3
                      Point group of crystal =     1: C1, 1, 1
                      Space group of crystal =     1: P1, P 1
 
             Set iprint > 1 for details on symmetry rotations/translations
 
                         Centre of mass is constrained
             Set iprint > 1 for details of linear ionic constraints
 
                         Number of cell constraints= 6
                         Cell constraints are:  0 0 0 0 0 0
 
                         External pressure/stress (GPa)
                          0.00000   0.00000   0.00000
                                    0.00000   0.00000
                                              0.00000
 
+---------------- MEMORY AND SCRATCH DISK ESTIMATES PER PROCESS --------------+
|                                                     Memory          Disk    |
| Baseline code, static data and system overhead      855.0 MB         0.0 MB |
| BLAS internal memory storage                          0.0 MB         0.0 MB |
| Model and support data                              335.5 MB         0.0 MB |
| Electronic energy minimisation requirements          68.2 MB         0.0 MB |
| Force calculation requirements                        1.7 MB         0.0 MB |
|                                               ----------------------------- |
| Approx. total storage required per process         1258.8 MB         0.0 MB |
|                                                                             |
| Requirements will fluctuate during execution and may exceed these estimates |
+-----------------------------------------------------------------------------+
Calculating approximate eigenstates for fixed initial Hamiltonian
Cut-off for approx. calculation is  550.359 eV
Resetting cut-off to  900.000 eV
Calculating total energy with cut-off of  900.000 eV.
------------------------------------------------------------------------ <-- SCF
SCF loop      Energy           Fermi           Energy gain       Timer   <-- SCF
                               energy          per atom          (sec)   <-- SCF
------------------------------------------------------------------------ <-- SCF
Initial  -2.75642267E+005  0.00000000E+000                     13806.00  <-- SCF
      1  -2.75111933E+005  3.14214231E+000  -2.07973895E+000   14005.28  <-- SCF
      2  -2.75271850E+005  3.16104209E+000   6.27122833E-001   14220.91  <-- SCF
      3  -2.76864042E+005  9.15080936E+000   6.24389015E+000   14455.61  <-- SCF
      4  -2.76959079E+005  9.14419196E+000   3.72695781E-001   14659.42  <-- SCF
      5  -2.75274540E+005  6.68723036E+000  -6.60603533E+000   14947.30  <-- SCF
      6  -2.75567516E+005  6.60365091E+000   1.14892619E+000   15134.50  <-- SCF
      7  -2.75243974E+005  4.98054976E+000  -1.26879371E+000   15373.56  <-- SCF
      8  -2.75179319E+005  4.41196293E+000  -2.53548951E-001   15589.18  <-- SCF
      9  -2.75170119E+005  4.33882296E+000  -3.60784774E-002   15813.73  <-- SCF
     10  -2.75172125E+005  4.38124590E+000   7.86917115E-003   16009.24  <-- SCF
     11  -2.75167287E+005  4.36059015E+000  -1.89758698E-002   16206.05  <-- SCF
     12  -2.75167124E+005  4.37010431E+000  -6.38170431E-004   16398.95  <-- SCF
     13  -2.75171808E+005  4.40667313E+000   1.83700607E-002   16597.51  <-- SCF
     14  -2.75167543E+005  4.36560749E+000  -1.67268691E-002   16805.16  <-- SCF
     15  -2.75165700E+005  4.35331301E+000  -7.22622310E-003   17001.37  <-- SCF
     16  -2.75165958E+005  4.35112259E+000   1.01086196E-003   17198.92  <-- SCF
     17  -2.75166068E+005  4.34677974E+000   4.32180480E-004   17393.40  <-- SCF
     18  -2.75165497E+005  4.34260776E+000  -2.23947355E-003   17585.80  <-- SCF
     19  -2.75165484E+005  4.34313961E+000  -5.31388063E-005   17781.81  <-- SCF
     20  -2.75165519E+005  4.34539735E+000   1.39770627E-004   17979.19  <-- SCF
     21  -2.75165462E+005  4.34593600E+000  -2.25530231E-004   18171.51  <-- SCF
     22  -2.75165454E+005  4.34545293E+000  -3.14975824E-005   18365.46  <-- SCF
     23  -2.75165455E+005  4.34493676E+000   3.76620098E-006   18561.11  <-- SCF
     24  -2.75165454E+005  4.34357400E+000  -1.15195275E-006   18748.74  <-- SCF
     25  -2.75165453E+005  4.34333586E+000  -4.50099153E-006   18932.84  <-- SCF
     26  -2.75165454E+005  4.34365159E+000   2.49602557E-006   19098.82  <-- SCF
     27  -2.75165453E+005  4.34431674E+000  -4.28824644E-006   19238.94  <-- SCF
     28  -2.75165452E+005  4.34414929E+000  -1.56151839E-006   19370.76  <-- SCF
     29  -2.75165452E+005  4.34433979E+000   5.19574871E-007   19504.61  <-- SCF
     30  -2.75165452E+005  4.34424336E+000  -4.91161330E-007   19651.17  <-- SCF
------------------------------------------------------------------------ <-- SCF
 
Final energy, E             =  -275160.3401911     eV
Final free energy (E-TS)    =  -275165.4523279     eV
(energies not corrected for finite basis set)
 
NB est. 0K energy (E-0.5TS)      =  -275162.8962595     eV
 

Writing analysis data to castep.castep_bin

Writing model to castep.check
 
+---------------- MEMORY AND SCRATCH DISK ESTIMATES PER PROCESS --------------+
|                                                     Memory          Disk    |
| Model and support data                              346.2 MB         0.0 MB |
| Electronic energy minimisation requirements          68.2 MB         0.0 MB |
| Geometry minimisation requirements                   83.0 MB         0.0 MB |
|                                               ----------------------------- |
| Approx. total storage required per process          497.4 MB         0.0 MB |
|                                                                             |
| Requirements will fluctuate during execution and may exceed these estimates |
+-----------------------------------------------------------------------------+
 
 
 ************************************** Forces **************************************
 *                                                                                  *
 *                           Cartesian components (eV/A)                            *
 * -------------------------------------------------------------------------------- *
 *                         x                    y                    z              *
 *                                                                                  *
 * Al              1     -0.47506              0.01806              0.34336         *
 * Al              2     -0.06753              0.14455              0.07852         *
 * Al              3      0.04069             -0.08425             -0.13337         *
 * Al              4     -0.17315              0.01349             -0.16282         *
 * Al              5      0.21186              0.16346              0.02248         *
 * Al              6      0.05248              0.00486              0.00239         *
 * Al              7      0.03739              0.09639             -0.14482         *
 * Al              8     -0.12758              0.03766              0.08461         *
 * Al              9     -0.05882              0.06036              0.33623         *
 * Al             10     -0.00060             -0.22083             -0.08134         *
 * Al             11      0.02647              0.02164              0.21695         *
 * Al             12     -0.03858             -0.19569             -0.02046         *
 * Al             13      0.00281              0.08892              0.04292         *
 * Al             14     -0.32328             -0.08540              0.09033         *
 * Al             15     -0.09288              0.02987             -0.00989         *
 * Al             16     -0.11023              0.04133              0.08463         *
 * Al             17      0.14908             -0.15071             -0.01087         *
 * Al             18      0.05190              0.07115              0.16217         *
 * Al             19      0.15604             -0.15690             -0.07820         *
 * Al             20     -0.15343             -0.23034             -0.08325         *
 * Al             21      0.01820              0.05260              0.04020         *
 * Al             22     -0.10802             -0.07272             -0.00032         *
 * Al             23     -0.05670              0.08798              0.16230         *
 * Al             24     -0.08137              0.22169             -0.24377         *
 * Al             25      0.10392              0.27211             -0.01828         *
 * Al             26      0.01393             -0.01143              0.01184         *
 * Al             27      0.00573              0.02066              0.02652         *
 * Al             28      0.21410              0.06486              0.08253         *
 * Al             29     -0.11129             -0.09004             -0.00022         *
 * Al             30     -0.62945              0.00493             -0.20100         *
 * Al             31      0.05878              0.07453              0.07761         *
 * Al             32     -0.38449              0.37002              0.14015         *
 * Al             33     -0.21237             -0.11122              0.05310         *
 * Al             34      0.13002             -0.07948             -0.03286         *
 * Al             35     -0.07897             -0.09703              0.11345         *
 * Al             36      0.21136             -0.06373              0.53987         *
 * Al             37     -0.22004              0.01214             -0.03866         *
 * Al             38     -0.04648              0.04763             -0.05340         *
 * Al             39      0.03167             -0.06591              0.12123         *
 * Al             40     -0.17675             -0.07187              0.01522         *
 * Al             41     -0.02285              0.14993             -0.08598         *
 * Al             42      0.31543             -0.05258             -0.20636         *
 * Al             43      0.10905             -0.02114              0.17137         *
 * Al             44     -0.27970              0.24133              0.07045         *
 * Al             45     -0.21018             -0.13200              0.05955         *
 * Al             46      0.10038              0.14953              0.09942         *
 * Al             47     -0.19842              0.02005             -0.13983         *
 * Al             48      0.11855             -0.09567              0.08314         *
 * Al             49     -0.17867             -0.24495             -0.28480         *
 * Al             50     -0.10161              0.21617             -0.01970         *
 * Al             51     -0.03111              0.02489             -0.11065         *
 * Al             52     -0.02056              0.05231              0.11030         *
 * Al             53     -0.01964              0.01313             -0.14244         *
 * Al             54      0.07682             -0.03486             -0.20399         *
 * Al             55     -0.05102             -0.06762              0.10982         *
 * Al             56     -0.26384             -0.10852             -0.08261         *
 * Al             57     -0.13124             -0.00219              0.23626         *
 * Al             58     -0.15324              0.13287              0.08254         *
 * Al             59     -0.38117              0.02757              0.02069         *
 * Al             60      0.05715             -0.33625             -0.16569         *
 * Ni              1      0.03623             -0.04306             -0.13122         *
 * Ni              2      0.34709              0.05760              0.03587         *
 * Ni              3      0.86184             -0.08569             -0.23162         *
 * Ni              4     -0.01688              0.21990             -0.08764         *
 * Ni              5      0.20634              0.02104             -0.25160         *
 * Ni              6      0.32368             -0.01191              0.04218         *
 * Ni              7      0.23253              0.02114             -0.11251         *
 * Ni              8      0.38309             -0.08183              0.18833         *
 * Ni              9      0.37258             -0.36278              0.03669         *
 * Ni             10      0.19581             -0.09020             -0.14500         *
 * Ni             11      0.01039              0.09234              0.08620         *
 * Ni             12      0.25813              0.39425              0.01898         *
 * Ni             13     -0.18877             -0.05484              0.06653         *
 * Ni             14      0.05560             -0.01872              0.09226         *
 * Ni             15      0.13715             -0.05996              0.16416         *
 * Ni             16      0.24419              0.05023             -0.18240         *
 * Ni             17      0.57928             -0.10031              0.07992         *
 * Ni             18      0.79844              0.01285             -0.03729         *
 * Ni             19      0.46170              0.03812             -0.16631         *
 * Ni             20     -0.05025             -0.15121             -0.19121         *
 * Ni             21      0.14671              0.00165              0.06199         *
 * Ni             22      0.21758              0.02621              0.10073         *
 * Ni             23      0.23173             -0.25677             -0.01604         *
 * Ni             24      0.09322             -0.04014              0.03347         *
 * Ni             25      0.84145              0.07745             -0.06138         *
 * Ni             26      1.03121             -0.01366              0.00572         *
 * Ni             27     -0.06607              0.09796              0.18311         *
 * Ni             28      0.42315             -0.00724              0.04473         *
 * Ni             29      0.24215             -0.09593              0.05361         *
 * Ni             30      0.41626              0.00134             -0.27746         *
 * Ni             31      0.60339             -0.26782              0.01517         *
 * Ni             32      0.85259             -0.08401             -0.21150         *
 * Ni             33      0.05042              0.02907              0.11620         *
 * Ni             34     -0.06813             -0.03462             -0.04104         *
 * Ni             35     -0.08611              0.09606              0.07852         *
 * Ni             36      0.13256             -0.13766              0.04804         *
 * Ni             37     -0.16295              0.00125             -0.10035         *
 * Ni             38      0.00023              0.04240              0.19979         *
 * Ni             39     -0.26433             -0.01017              0.02117         *
 * Ni             40     -0.03935              0.05039             -0.08151         *
 * Ni             41     -0.06047             -0.12317              0.08782         *
 * Ni             42      0.08654             -0.13086              0.11514         *
 * Ni             43     -0.00995              0.22918             -0.04148         *
 * Ni             44     -0.02992             -0.24823              0.14405         *
 * Ni             45     -0.08516              0.16949              0.30745         *
 * Ni             46     -0.37720              0.02081              0.23657         *
 * Ni             47     -0.06885             -0.05508              0.17910         *
 * Ni             48     -0.10198              0.09807             -0.26868         *
 * Ni             49     -0.08417             -0.02751              0.06050         *
 * Ni             50      0.13248             -0.04574              0.00319         *
 * Ni             51      0.07760             -0.04039              0.18669         *
 * Ni             52     -0.01929              0.09509             -0.13729         *
 * Ni             53      0.03521              0.06510             -0.07616         *
 * Ni             54      0.07518             -0.36210              0.06438         *
 * Ni             55     -0.03057             -0.01451              0.03656         *
 * Ni             56      0.05746             -0.06034              0.08414         *
 * Ni             57     -0.24261             -0.03489              0.09667         *
 * Ni             58      0.00747              0.00738             -0.02213         *
 * Ni             59      0.05563              0.05688              0.23036         *
 * Ni             60     -0.06360             -0.01231             -0.20115         *
 * Ni             61     -0.06394             -0.11934              0.25478         *
 * Ni             62      0.02942             -0.08372             -0.00465         *
 * Ni             63     -0.08562              0.00051              0.22634         *
 * Ni             64     -0.01493             -0.17939             -0.14774         *
 * Ni             65      0.11662             -0.09478              0.11431         *
 * Ni             66     -0.12303              0.08459             -0.01103         *
 * Ni             67     -0.03014             -0.10327              0.09861         *
 * Ni             68     -0.16604              0.19844             -0.04228         *
 * Ni             69      0.14085              0.04548              0.10279         *
 * Ni             70     -0.00312             -0.07893              0.12229         *
 * Ni             71      0.24612              0.14444              0.18695         *
 * Ni             72     -0.00108              0.07030             -0.14917         *
 * Ni             73      0.03416             -0.12081              0.15550         *
 * Ni             74      0.24011              0.27830             -0.00745         *
 * Ni             75     -0.13673              0.10041              0.28394         *
 * Ni             76      0.21687             -0.12275             -0.03804         *
 * Ni             77     -0.21119              0.17756              0.00607         *
 * Ni             78     -0.23393              0.02691              0.10834         *
 * Ni             79     -0.08945              0.04364             -0.12850         *
 * Ni             80     -0.21179             -0.03890             -0.24117         *
 * Ni             81      0.13596              0.00733             -0.07584         *
 * Ni             82      0.19315              0.07997              0.30685         *
 * Ni             83      0.09824             -0.03434              0.11000         *
 * Ni             84      0.08371              0.07872              0.14593         *
 * Ni             85     -0.08544              0.16566             -0.00731         *
 * Ni             86      0.16116              0.07460             -0.13881         *
 * Ni             87     -0.02257              0.06942             -0.11450         *
 * Ni             88     -0.46111              0.05853              0.03627         *
 * Ni             89     -0.01276              0.01141             -0.10185         *
 * Ni             90     -0.11577             -0.00470              0.06518         *
 * Ni             91     -0.04597             -0.02826             -0.02691         *
 * Ni             92     -0.03510             -0.01909              0.10810         *
 * Ni             93      0.03165             -0.09593              0.02291         *
 * Ni             94      0.08843              0.02751              0.25919         *
 * Ni             95      0.01169              0.05504              0.01390         *
 * Ni             96      0.02995             -0.05143              0.01327         *
 * Ni             97     -0.21534              0.12973             -0.12653         *
 * Ni             98      0.04364              0.03737              0.05096         *
 * Ni             99     -0.12789             -0.01827             -0.06340         *
 * Ni            100      0.08046             -0.00840             -0.20973         *
 * Ni            101     -0.26041              0.07014              0.10530         *
 * Ni            102      0.16808              0.05347             -0.06361         *
 * Ni            103     -0.17032             -0.21259              0.26250         *
 * Ni            104     -0.31688              0.21413              0.12625         *
 * Ni            105     -0.14185             -0.03094             -0.03751         *
 * Ni            106     -0.02399             -0.04296             -0.08320         *
 * Ni            107     -0.12467             -0.01894             -0.07293         *
 * Ni            108     -0.03962             -0.21928             -0.12762         *
 * Ni            109      0.21708             -0.07768              0.01593         *
 * Ni            110      0.18952             -0.16734             -0.12720         *
 * Ni            111     -0.10770              0.05631              0.00884         *
 * Ni            112      0.13333             -0.07524             -0.21962         *
 * Ni            113     -0.01614              0.08338              0.14285         *
 * Ni            114     -0.21779             -0.05369              0.10675         *
 * Ni            115     -0.10851              0.08719              0.11973         *
 * Ni            116     -0.04131             -0.01705              0.14536         *
 * Ni            117      0.25067              0.08454             -0.07624         *
 * Ni            118     -0.04431              0.19321             -0.20287         *
 * Ni            119     -0.06751             -0.13457             -0.02222         *
 * Ni            120      0.03039              0.03262              0.10972         *
 * Ni            121     -0.00212              0.07721             -0.20547         *
 * Ni            122     -0.06870             -0.04037              0.09672         *
 * Ni            123     -0.11760             -0.02998             -0.02590         *
 * Ni            124     -0.12609             -0.05933             -0.25940         *
 * Ni            125     -0.06303             -0.09271             -0.11124         *
 * Ni            126      0.03556              0.14211             -0.13359         *
 * Ni            127     -0.44946              0.07295             -0.10200         *
 * Ni            128      0.08961              0.21598              0.27397         *
 * Ni            129      0.00549             -0.05612             -0.12573         *
 * Ni            130     -0.04453             -0.09558              0.02457         *
 * Ni            131     -0.01200              0.06408             -0.12620         *
 * Ni            132     -0.00834             -0.07259             -0.19701         *
 * Ni            133      0.15256              0.15931              0.03023         *
 * Ni            134      0.16534             -0.07016             -0.14397         *
 * Ni            135     -0.12142              0.09083              0.16907         *
 * Ni            136     -0.28596              0.15773             -0.37425         *
 * Ni            137     -0.13398              0.05335              0.09000         *
 * Ni            138     -0.22893             -0.00771             -0.23991         *
 * Ni            139      0.13387              0.07099              0.08001         *
 * Ni            140     -0.00460              0.03131             -0.14242         *
 * Ni            141     -0.12345              0.11012              0.17138         *
 * Ni            142      0.02566              0.14077             -0.26084         *
 * Ni            143     -0.04608              0.20213             -0.12435         *
 * Ni            144      0.11471             -0.06406             -0.01113         *
 * Ni            145     -0.07588             -0.14245             -0.25248         *
 * Ni            146     -0.15052              0.11109             -0.27107         *
 * Ni            147     -0.10099             -0.04086             -0.18699         *
 * Ni            148      0.26992             -0.05971              0.02501         *
 * Ni            149      0.09578             -0.07237             -0.01167         *
 * Ni            150     -0.07096              0.05377              0.00996         *
 * Ni            151      0.12884              0.04092             -0.37542         *
 * Ni            152     -0.29573             -0.30113              0.04598         *
 * Ni            153      0.07466              0.16122             -0.24715         *
 * Ni            154     -0.11033             -0.05644             -0.00759         *
 * Ni            155      0.05323             -0.14700              0.01860         *
 * Ni            156     -0.14544              0.04704              0.18797         *
 * Ni            157     -0.27611             -0.08321             -0.18297         *
 * Ni            158     -0.30631              0.00932             -0.35716         *
 * Ni            159     -0.06469             -0.16662              0.17917         *
 * Ni            160     -0.00518              0.05380              0.10929         *
 * Ni            161      0.10923             -0.05388              0.13151         *
 * Ni            162      0.12785             -0.02372              0.05735         *
 * Ni            163     -0.04509             -0.13336             -0.03430         *
 * Ni            164      0.20294             -0.09342             -0.02252         *
 * Ni            165     -0.06084             -0.03245             -0.02472         *
 * Ni            166      0.00849              0.20213             -0.16907         *
 * Ni            167     -0.19032             -0.12084              0.08152         *
 * Ni            168     -0.21673             -0.02101              0.03528         *
 * Ni            169     -0.04451              0.00921              0.06699         *
 * Ni            170      0.11837              0.03687              0.17404         *
 * Ni            171     -0.41720              0.11993              0.01019         *
 * Ni            172     -0.74863             -0.23623             -0.08305         *
 * Ni            173     -0.08504             -0.09672              0.03157         *
 * Ni            174     -0.09764             -0.11301             -0.23220         *
 * Ni            175     -0.20560             -0.08577             -0.03504         *
 * Ni            176     -0.13506             -0.10939             -0.15044         *
 * Ni            177      0.08952             -0.00148              0.04050         *
 * Ni            178      0.24449             -0.22306             -0.03374         *
 * Ni            179     -0.15625              0.21819             -0.04896         *
 * Ni            180      0.13816             -0.01554             -0.16784         *
 * Ni            181     -0.23358              0.17293              0.08843         *
 * Ni            182      0.34769              0.01730              0.10330         *
 * Ni            183     -0.02442              0.08608             -0.03169         *
 * Ni            184      0.03160             -0.15750             -0.10851         *
 * Ni            185      0.04927              0.13888              0.18866         *
 * Ni            186      0.05308              0.02003              0.11237         *
 * Ni            187     -0.23195              0.12749              0.11394         *
 * Ni            188      0.21429             -0.19211              0.08301         *
 * Ni            189     -0.10422              0.01583             -0.04385         *
 * Ni            190     -0.11583              0.01908             -0.03700         *
 * Ni            191      0.05840              0.05870             -0.00670         *
 * Ni            192     -0.12614              0.01109              0.04966         *
 * Ni            193     -0.27617              0.12132              0.14293         *
 * Ni            194     -0.28310              0.16019             -0.09095         *
 * Ni            195     -0.42029              0.10342             -0.16405         *
 *                                                                                  *
 ************************************************************************************
 LBFGS: finished iteration     0 with enthalpy= -2.75165452E+005 eV
  
 +-----------+-----------------+-----------------+------------+-----+ <-- LBFGS
 | Parameter |      value      |    tolerance    |    units   | OK? | <-- LBFGS
 +-----------+-----------------+-----------------+------------+-----+ <-- LBFGS
 |  dE/ion   |   0.000000E+000 |   2.000000E-005 |         eV | No  | <-- LBFGS
 |  |F|max   |   1.031320E+000 |   5.000000E-002 |       eV/A | No  | <-- LBFGS
 |  |dR|max  |   0.000000E+000 |   1.000000E-003 |          A | No  | <-- LBFGS
 +-----------+-----------------+-----------------+------------+-----+ <-- LBFGS
  

================================================================================
 Starting LBFGS iteration          1 ...
================================================================================
  
 +------------+-------------+-------------+-----------------+ <-- min LBFGS
 |    Step    |   lambda    |   F.delta'  |    enthalpy     | <-- min LBFGS
 +------------+-------------+-------------+-----------------+ <-- min LBFGS
 |  previous  |    0.000000 |    2.462782 |  -275165.452328 | <-- min LBFGS
 +------------+-------------+-------------+-----------------+ <-- min LBFGS
  

--------------------------------------------------------------------------------
 LBFGS: starting iteration         1 with trial guess (lambda=  1.000000)
--------------------------------------------------------------------------------
 
                           -------------------------------
                                     Cell Contents
                           -------------------------------
 
            xxxxxxxxxxxxxxxxxxxxxxxxxxxxxxxxxxxxxxxxxxxxxxxxxxxxxxxxxxxxxxxxx
            x  Element         Atom        Fractional coordinates of atoms  x
            x                 Number           u          v          w      x
            x---------------------------------------------------------------x
            x  Al                1         0.946284   0.693576   0.561557   x
            x  Al                2         0.673090   0.564693   0.438298   x
            x  Al                3         0.808770   0.699236   0.435500   x
            x  Al                4         0.421211   0.684389   0.808681   x
            x  Al                5         0.439781   0.564665   0.440263   x
            x  Al                6         0.417353   0.323875   0.441012   x
            x  Al                7         0.560511   0.688140   0.682969   x
            x  Al                8         0.298176   0.573866   0.563197   x
            x  Al                9         0.940634   0.442872   0.566759   x
            x  Al               10         0.811627   0.438898   0.433299   x
            x  Al               11         0.557815   0.205660   0.687391   x
            x  Al               12         0.419000   0.188943   0.566364   x
            x  Al               13         0.180603   0.327877   0.439562   x
            x  Al               14         0.944556   0.938377   0.563724   x
            x  Al               15         0.693822   0.192134   0.559541   x
            x  Al               16         0.556194   0.944371   0.452256   x
            x  Al               17         0.181245   0.055488   0.441493   x
            x  Al               18         0.182444   0.190578   0.575648   x
            x  Al               19         0.814466   0.696193   0.200291   x
            x  Al               20         0.307005   0.565176   0.308474   x
            x  Al               21         0.177140   0.698127   0.313687   x
            x  Al               22         0.682901   0.318708   0.193776   x
            x  Al               23         0.554148   0.317227   0.318053   x
            x  Al               24         0.176751   0.326547   0.184036   x
            x  Al               25         0.942563   0.187453   0.322143   x
            x  Al               26         0.809875   0.185264   0.197723   x
            x  Al               27         0.554451   0.076196   0.313915   x
            x  Al               28         0.317524   0.195279   0.189053   x
            x  Al               29         0.178382   0.189281   0.312514   x
            x  Al               30         0.945327   0.942627   0.316088   x
            x  Al               31         0.935794   0.194636   0.559665   x
            x  Al               32         0.801723   0.069401   0.057801   x
            x  Al               33         0.798522   0.938001   0.193916   x
            x  Al               34         0.554660   0.813277   0.311985   x
            x  Al               35         0.310957   0.943427   0.201965   x
            x  Al               36         0.935957   0.569084   0.939431   x
            x  Al               37         0.805270   0.562980   0.811101   x
            x  Al               38         0.685413   0.690531   0.067103   x
            x  Al               39         0.559253   0.683422   0.934062   x
            x  Al               40         0.176776   0.687467   0.065250   x
            x  Al               41         0.688385   0.455271   0.068355   x
            x  Al               42         0.818271   0.318383   0.059717   x
            x  Al               43         0.559561   0.445708   0.938696   x
            x  Al               44         0.942326   0.071850   0.930529   x
            x  Al               45         0.434826   0.063331   0.936802   x
            x  Al               46         0.565250   0.203237   0.941832   x
            x  Al               47         0.303397   0.066102   0.060598   x
            x  Al               48         0.942407   0.934409   0.065755   x
            x  Al               49         0.801193   0.930845   0.931453   x
            x  Al               50         0.435005   0.824070   0.936334   x
            x  Al               51         0.307467   0.817521   0.066784   x
            x  Al               52         0.805221   0.695711   0.683178   x
            x  Al               53         0.810132   0.321012   0.813833   x
            x  Al               54         0.561269   0.436345   0.677178   x
            x  Al               55         0.426732   0.443188   0.815733   x
            x  Al               56         0.296665   0.438128   0.690280   x
            x  Al               57         0.802607   0.936085   0.692741   x
            x  Al               58         0.799783   0.942649   0.440732   x
            x  Al               59         0.940880   0.069659   0.700268   x
            x  Al               60         0.564566   0.062590   0.807464   x
            x  Ni                1         0.057976   0.817535   0.816514   x
            x  Ni                2         0.057324   0.941355   0.691889   x
            x  Ni                3         0.057710   0.066399   0.817025   x
            x  Ni                4         0.056746   0.191356   0.692857   x
            x  Ni                5         0.056258   0.317048   0.817736   x
            x  Ni                6         0.057381   0.443071   0.691869   x
            x  Ni                7         0.057119   0.568332   0.815653   x
            x  Ni                8         0.057529   0.693695   0.691532   x
            x  Ni                9         0.058119   0.817920   0.064952   x
            x  Ni               10         0.058542   0.942169   0.941076   x
            x  Ni               11         0.060156   0.067011   0.065062   x
            x  Ni               12         0.058043   0.191905   0.941029   x
            x  Ni               13         0.055893   0.318280   0.063328   x
            x  Ni               14         0.055837   0.442950   0.939576   x
            x  Ni               15         0.054310   0.567536   0.064222   x
            x  Ni               16         0.056340   0.692892   0.939765   x
            x  Ni               17         0.055459   0.818708   0.314043   x
            x  Ni               18         0.058083   0.943078   0.189463   x
            x  Ni               19         0.058463   0.065557   0.315186   x
            x  Ni               20         0.058676   0.192947   0.188720   x
            x  Ni               21         0.059517   0.318536   0.314639   x
            x  Ni               22         0.053682   0.444403   0.188566   x
            x  Ni               23         0.055218   0.569727   0.314574   x
            x  Ni               24         0.055329   0.693392   0.189449   x
            x  Ni               25         0.056561   0.817706   0.566429   x
            x  Ni               26         0.055925   0.940284   0.440984   x
            x  Ni               27         0.059768   0.065692   0.567064   x
            x  Ni               28         0.065948   0.191526   0.442298   x
            x  Ni               29         0.059460   0.317536   0.565692   x
            x  Ni               30         0.055587   0.444883   0.440141   x
            x  Ni               31         0.057091   0.569755   0.564938   x
            x  Ni               32         0.055403   0.695076   0.439649   x
            x  Ni               33         0.182978   0.941058   0.815904   x
            x  Ni               34         0.307487   0.817263   0.815417   x
            x  Ni               35         0.307444   0.940535   0.690972   x
            x  Ni               36         0.181040   0.817769   0.690817   x
            x  Ni               37         0.434825   0.941963   0.810999   x
            x  Ni               38         0.554271   0.810247   0.811580   x
            x  Ni               39         0.558807   0.940285   0.686016   x
            x  Ni               40         0.431251   0.813901   0.689608   x
            x  Ni               41         0.680830   0.937419   0.811350   x
            x  Ni               42         0.807831   0.811640   0.811717   x
            x  Ni               43         0.680499   0.813663   0.686480   x
            x  Ni               44         0.933572   0.939914   0.814787   x
            x  Ni               45         0.934210   0.195828   0.813470   x
            x  Ni               46         0.937112   0.815929   0.689184   x
            x  Ni               47         0.182431   0.192169   0.815993   x
            x  Ni               48         0.308359   0.066435   0.817177   x
            x  Ni               49         0.306814   0.192825   0.695416   x
            x  Ni               50         0.181532   0.064930   0.693666   x
            x  Ni               51         0.438095   0.192683   0.816722   x
            x  Ni               52         0.684981   0.070780   0.688739   x
            x  Ni               53         0.432833   0.069125   0.692581   x
            x  Ni               54         0.682682   0.197002   0.812265   x
            x  Ni               55         0.934587   0.319332   0.937900   x
            x  Ni               56         0.811664   0.192609   0.688896   x
            x  Ni               57         0.181058   0.441616   0.817948   x
            x  Ni               58         0.306573   0.317401   0.817367   x
            x  Ni               59         0.177721   0.316781   0.692896   x
            x  Ni               60         0.558846   0.324537   0.813203   x
            x  Ni               61         0.429535   0.319821   0.688052   x
            x  Ni               62         0.684009   0.442785   0.810703   x
            x  Ni               63         0.936055   0.317799   0.688284   x
            x  Ni               64         0.810324   0.443905   0.685004   x
            x  Ni               65         0.933380   0.445769   0.812204   x
            x  Ni               66         0.183264   0.693095   0.816605   x
            x  Ni               67         0.301941   0.564768   0.813667   x
            x  Ni               68         0.302985   0.691991   0.688302   x
            x  Ni               69         0.178049   0.568388   0.690165   x
            x  Ni               70         0.427519   0.562585   0.686407   x
            x  Ni               71         0.556033   0.562039   0.806627   x
            x  Ni               72         0.424634   0.442757   0.566334   x
            x  Ni               73         0.556497   0.564494   0.564139   x
            x  Ni               74         0.682464   0.687451   0.810320   x
            x  Ni               75         0.934828   0.570339   0.686776   x
            x  Ni               76         0.684964   0.565761   0.682922   x
            x  Ni               77         0.932909   0.688914   0.812348   x
            x  Ni               78         0.811935   0.568893   0.556759   x
            x  Ni               79         0.185312   0.941608   0.067721   x
            x  Ni               80         0.307591   0.941540   0.939831   x
            x  Ni               81         0.182189   0.816604   0.942207   x
            x  Ni               82         0.431561   0.942746   0.065215   x
            x  Ni               83         0.556870   0.814910   0.063089   x
            x  Ni               84         0.560195   0.941236   0.937292   x
            x  Ni               85         0.683726   0.939771   0.062719   x
            x  Ni               86         0.809143   0.815755   0.066121   x
            x  Ni               87         0.679052   0.810175   0.938487   x
            x  Ni               88         0.936429   0.814407   0.938661   x
            x  Ni               89         0.185086   0.193889   0.067281   x
            x  Ni               90         0.309436   0.192294   0.939390   x
            x  Ni               91         0.181828   0.067538   0.939571   x
            x  Ni               92         0.434683   0.192797   0.060437   x
            x  Ni               93         0.559385   0.069181   0.062278   x
            x  Ni               94         0.687426   0.197374   0.067386   x
            x  Ni               95         0.680626   0.067997   0.936433   x
            x  Ni               96         0.807115   0.193313   0.936574   x
            x  Ni               97         0.807591   0.066085   0.815638   x
            x  Ni               98         0.931262   0.187995   0.064436   x
            x  Ni               99         0.181474   0.445740   0.062587   x
[...]
            x  Al               10         0.811614   0.437349   0.432737   x
            x  Al               11         0.557997   0.205802   0.688937   x
            x  Al               12         0.418718   0.187557   0.566214   x
            x  Al               13         0.180683   0.328486   0.439892   x
            x  Al               14         0.942398   0.937690   0.564304   x
            x  Al               15         0.693162   0.192322   0.559477   x
            x  Al               16         0.555420   0.944672   0.452854   x
            x  Al               17         0.182342   0.054464   0.441450   x
            x  Al               18         0.182849   0.191084   0.576787   x
            x  Al               19         0.815509   0.695091   0.199719   x
            x  Al               20         0.305948   0.563567   0.307906   x
            x  Al               21         0.177351   0.698471   0.313911   x
            x  Al               22         0.682138   0.318224   0.193756   x
            x  Al               23         0.553758   0.317830   0.319177   x
            x  Al               24         0.176200   0.328073   0.182318   x
            x  Al               25         0.943350   0.189349   0.322025   x
            x  Al               26         0.809975   0.185221   0.197837   x
            x  Al               27         0.554503   0.076347   0.314073   x
            x  Al               28         0.319014   0.195733   0.189624   x
            x  Al               29         0.177615   0.188680   0.312453   x
            x  Al               30         0.941055   0.942667   0.314702   x
            x  Al               31         0.936205   0.195197   0.560196   x
            x  Al               32         0.799018   0.071951   0.058762   x
            x  Al               33         0.797004   0.937242   0.194249   x
            x  Al               34         0.555575   0.812718   0.311741   x
            x  Al               35         0.310401   0.942770   0.202769   x
            x  Al               36         0.937447   0.568650   0.943191   x
            x  Al               37         0.803764   0.563039   0.810878   x
            x  Al               38         0.685100   0.690858   0.066741   x
            x  Al               39         0.559437   0.682971   0.934903   x
            x  Al               40         0.175589   0.686917   0.065354   x
            x  Al               41         0.688236   0.456315   0.067770   x
            x  Al               42         0.820422   0.318000   0.058272   x
            x  Al               43         0.560285   0.445555   0.939885   x
            x  Al               44         0.940463   0.073551   0.930950   x
            x  Al               45         0.433363   0.062390   0.937199   x
            x  Al               46         0.565946   0.204277   0.942547   x
            x  Al               47         0.301989   0.066230   0.059641   x
            x  Al               48         0.943304   0.933727   0.066342   x
            x  Al               49         0.799931   0.929188   0.929491   x
            x  Al               50         0.434303   0.825605   0.936199   x
            x  Al               51         0.307235   0.817706   0.066004   x
            x  Al               52         0.805005   0.696086   0.683959   x
            x  Al               53         0.809973   0.321100   0.812848   x
            x  Al               54         0.561788   0.436075   0.675757   x
            x  Al               55         0.426378   0.442734   0.816512   x
            x  Al               56         0.294838   0.437375   0.689722   x
            x  Al               57         0.801664   0.936075   0.694422   x
            x  Al               58         0.798672   0.943574   0.441323   x
            x  Al               59         0.938259   0.069858   0.700508   x
            x  Al               60         0.564942   0.060213   0.806334   x
            x  Ni                1         0.058214   0.817236   0.815601   x
            x  Ni                2         0.059728   0.941744   0.692136   x
            x  Ni                3         0.063638   0.065812   0.815419   x
            x  Ni                4         0.056595   0.192878   0.692272   x
            x  Ni                5         0.057690   0.317199   0.815999   x
            x  Ni                6         0.059637   0.442993   0.692174   x
            x  Ni                7         0.058709   0.568489   0.814891   x
            x  Ni                8         0.060172   0.693137   0.692820   x
            x  Ni                9         0.060692   0.815403   0.065181   x
            x  Ni               10         0.059881   0.941532   0.940065   x
            x  Ni               11         0.060214   0.067653   0.065620   x
            x  Ni               12         0.059838   0.194653   0.941153   x
            x  Ni               13         0.054564   0.317900   0.063792   x
            x  Ni               14         0.056227   0.442806   0.940225   x
            x  Ni               15         0.055282   0.567110   0.065390   x
            x  Ni               16         0.058036   0.693250   0.938460   x
            x  Ni               17         0.059397   0.818069   0.314592   x
            x  Ni               18         0.063609   0.943152   0.189221   x
            x  Ni               19         0.061619   0.065772   0.314022   x
            x  Ni               20         0.058319   0.191893   0.187378   x
            x  Ni               21         0.060545   0.318544   0.315047   x
            x  Ni               22         0.055169   0.444603   0.189259   x
            x  Ni               23         0.056780   0.567944   0.314421   x
            x  Ni               24         0.055946   0.693096   0.189708   x
            x  Ni               25         0.062319   0.818233   0.565999   x
            x  Ni               26         0.062953   0.940143   0.441019   x
            x  Ni               27         0.059271   0.066363   0.568349   x
            x  Ni               28         0.068931   0.191456   0.442633   x
            x  Ni               29         0.061145   0.316885   0.566071   x
            x  Ni               30         0.058417   0.444908   0.438212   x
            x  Ni               31         0.061221   0.567937   0.565038   x
            x  Ni               32         0.061232   0.694494   0.438234   x
            x  Ni               33         0.183355   0.941235   0.816705   x
            x  Ni               34         0.307010   0.817014   0.815119   x
            x  Ni               35         0.306843   0.941205   0.691523   x
            x  Ni               36         0.181993   0.816815   0.691182   x
            x  Ni               37         0.433662   0.941980   0.810296   x
            x  Ni               38         0.554248   0.810545   0.812984   x
            x  Ni               39         0.556931   0.940192   0.686149   x
            x  Ni               40         0.430980   0.814253   0.689042   x
            x  Ni               41         0.680371   0.936544   0.811955   x
            x  Ni               42         0.808412   0.810722   0.812511   x
            x  Ni               43         0.680413   0.815275   0.686207   x
            x  Ni               44         0.933393   0.938235   0.815812   x
            x  Ni               45         0.933661   0.196995   0.815621   x
            x  Ni               46         0.934530   0.816082   0.690795   x
            x  Ni               47         0.181972   0.191808   0.817241   x
            x  Ni               48         0.307649   0.067137   0.815300   x
            x  Ni               49         0.306231   0.192642   0.695846   x
            x  Ni               50         0.182482   0.064628   0.693652   x
            x  Ni               51         0.438637   0.192374   0.818059   x
            x  Ni               52         0.684852   0.071438   0.687751   x
            x  Ni               53         0.433071   0.069592   0.692052   x
            x  Ni               54         0.683200   0.194455   0.812719   x
            x  Ni               55         0.934418   0.319231   0.938111   x
            x  Ni               56         0.812063   0.192185   0.689472   x
            x  Ni               57         0.179369   0.441372   0.818634   x
            x  Ni               58         0.306616   0.317450   0.817229   x
            x  Ni               59         0.178141   0.317155   0.694512   x
            x  Ni               60         0.558410   0.324460   0.811804   x
            x  Ni               61         0.429073   0.318989   0.689849   x
            x  Ni               62         0.684211   0.442178   0.810670   x
            x  Ni               63         0.935471   0.317811   0.689866   x
            x  Ni               64         0.810225   0.442657   0.683998   x
            x  Ni               65         0.934222   0.445124   0.813013   x
            x  Ni               66         0.182438   0.693686   0.816537   x
            x  Ni               67         0.301731   0.564035   0.814355   x
            x  Ni               68         0.301827   0.693375   0.687995   x
            x  Ni               69         0.179083   0.568709   0.690913   x
            x  Ni               70         0.427494   0.562021   0.687271   x
            x  Ni               71         0.557771   0.563072   0.807941   x
            x  Ni               72         0.424627   0.443266   0.565294   x
            x  Ni               73         0.556732   0.563645   0.565239   x
            x  Ni               74         0.684143   0.689421   0.810263   x
            x  Ni               75         0.933891   0.571044   0.688777   x
            x  Ni               76         0.686479   0.564923   0.682665   x
            x  Ni               77         0.931470   0.690126   0.812421   x
            x  Ni               78         0.810272   0.569094   0.557529   x
            x  Ni               79         0.184696   0.941915   0.066776   x
            x  Ni               80         0.306120   0.941284   0.938152   x
            x  Ni               81         0.183145   0.816648   0.941662   x
            x  Ni               82         0.432880   0.943296   0.067336   x
            x  Ni               83         0.557559   0.814651   0.063856   x
            x  Ni               84         0.560762   0.941796   0.938327   x
            x  Ni               85         0.683145   0.940932   0.062647   x
            x  Ni               86         0.810238   0.816299   0.065130   x
            x  Ni               87         0.678879   0.810641   0.937707   x
            x  Ni               88         0.933254   0.814821   0.938925   x
            x  Ni               89         0.185004   0.193991   0.066573   x
            x  Ni               90         0.308628   0.192246   0.939839   x
            x  Ni               91         0.181502   0.067348   0.939397   x
            x  Ni               92         0.434438   0.192650   0.061170   x
            x  Ni               93         0.559607   0.068531   0.062433   x
            x  Ni               94         0.688010   0.197636   0.069203   x
            x  Ni               95         0.680699   0.068382   0.936529   x
            x  Ni               96         0.807302   0.192962   0.936678   x
            x  Ni               97         0.806072   0.066982   0.814754   x
            x  Ni               98         0.931583   0.188251   0.064770   x
            x  Ni               99         0.180585   0.445623   0.062135   x
            x  Ni              100         0.308633   0.318095   0.063461   x
            x  Ni              101         0.305077   0.442994   0.941744   x
            x  Ni              102         0.182163   0.317293   0.941567   x
            x  Ni              103         0.432571   0.443365   0.064637   x
            x  Ni              104         0.560061   0.324595   0.066659   x
            x  Ni              105         0.433491   0.319847   0.939915   x
            x  Ni              106         0.684383   0.567698   0.938258   x
            x  Ni              107         0.686549   0.324579   0.941487   x
            x  Ni              108         0.933070   0.444103   0.066968   x
            x  Ni              109         0.811185   0.446311   0.939870   x
            x  Ni              110         0.307815   0.568137   0.064319   x
            x  Ni              111         0.306812   0.694132   0.941215   x
            x  Ni              112         0.180938   0.567601   0.938846   x
            x  Ni              113         0.432932   0.693687   0.062430   x
            x  Ni              114         0.556737   0.568221   0.066288   x
            x  Ni              115         0.430635   0.567714   0.938656   x
            x  Ni              116         0.812846   0.572142   0.069221   x
            x  Ni              117         0.810235   0.692096   0.937485   x
            x  Ni              118         0.934463   0.694952   0.066217   x
            x  Ni              119         0.182296   0.939409   0.314736   x
            x  Ni              120         0.309824   0.815575   0.316016   x
            x  Ni              121         0.182210   0.818059   0.187741   x
            x  Ni              122         0.439219   0.943567   0.319225   x
            x  Ni              123         0.432805   0.816046   0.440188   x
            x  Ni              124         0.557491   0.942836   0.187064   x
            x  Ni              125         0.432347   0.816798   0.188394   x
            x  Ni              126         0.681012   0.815213   0.189492   x
            x  Ni              127         0.934153   0.820144   0.191994   x
            x  Ni              128         0.309596   0.070502   0.317974   x
            x  Ni              129         0.185472   0.067896   0.189671   x
            x  Ni              130         0.429944   0.196057   0.320467   x
            x  Ni              131         0.556165   0.195895   0.187897   x
            x  Ni              132         0.432652   0.068010   0.186714   x
            x  Ni              133         0.682000   0.193699   0.317775   x
            x  Ni              134         0.682471   0.068023   0.188467   x
            x  Ni              135         0.808120   0.061772   0.317253   x
            x  Ni              136         0.931107   0.062747   0.185458   x
            x  Ni              137         0.179491   0.445947   0.312654   x
            x  Ni              138         0.299706   0.318646   0.309926   x
            x  Ni              139         0.308097   0.443144   0.186713   x
            x  Ni              140         0.431227   0.442749   0.313559   x
            x  Ni              141         0.558910   0.443948   0.190913   x
            x  Ni              142         0.434166   0.321399   0.187773   x
            x  Ni              143         0.681709   0.442499   0.315780   x
            x  Ni              144         0.811563   0.312873   0.314007   x
            x  Ni              145         0.808700   0.441096   0.191501   x
            x  Ni              146         0.935261   0.442193   0.313891   x
            x  Ni              147         0.933214   0.313407   0.191319   x
            x  Ni              148         0.307538   0.692128   0.188868   x
            x  Ni              149         0.179863   0.567256   0.190053   x
            x  Ni              150         0.430999   0.689886   0.314106   x
            x  Ni              151         0.556710   0.565960   0.312454   x
            x  Ni              152         0.555457   0.689225   0.189429   x
            x  Ni              153         0.432924   0.567782   0.187183   x
            x  Ni              154         0.681645   0.692254   0.316583   x
            x  Ni              155         0.809051   0.567155   0.320153   x
            x  Ni              156         0.684918   0.570714   0.195431   x
            x  Ni              157         0.935338   0.694596   0.317707   x
            x  Ni              158         0.933188   0.568932   0.192856   x
            x  Ni              159         0.183308   0.938334   0.567866   x
            x  Ni              160         0.307410   0.815846   0.564170   x
            x  Ni              161         0.310958   0.940345   0.439434   x
            x  Ni              162         0.182354   0.818644   0.440021   x
            x  Ni              163         0.429798   0.942794   0.567518   x
            x  Ni              164         0.556147   0.815072   0.565219   x
            x  Ni              165         0.672729   0.943895   0.317720   x
            x  Ni              166         0.429922   0.690721   0.563763   x
            x  Ni              167         0.682299   0.943657   0.567194   x
            x  Ni              168         0.809988   0.818298   0.562799   x
            x  Ni              169         0.807862   0.823722   0.317819   x
            x  Ni              170         0.679063   0.818670   0.441177   x
            x  Ni              171         0.935378   0.062690   0.441892   x
            x  Ni              172         0.933615   0.818971   0.439100   x
            x  Ni              173         0.303071   0.064228   0.567319   x
            x  Ni              174         0.295067   0.190959   0.438988   x
            x  Ni              175         0.551329   0.203084   0.450943   x
            x  Ni              176         0.430921   0.068945   0.441644   x
            x  Ni              177         0.687362   0.317579   0.684078   x
            x  Ni              178         0.817610   0.061280   0.569072   x
            x  Ni              179         0.811600   0.189760   0.436821   x
            x  Ni              180         0.680073   0.069579   0.440614   x
            x  Ni              181         0.178359   0.446468   0.565959   x
            x  Ni              182         0.302556   0.317931   0.566564   x
            x  Ni              183         0.303930   0.450788   0.439011   x
            x  Ni              184         0.554839   0.431514   0.446549   x
            x  Ni              185         0.556839   0.075691   0.571015   x
            x  Ni              186         0.688460   0.440707   0.559785   x
            x  Ni              187         0.812262   0.319397   0.562316   x
            x  Ni              188         0.686414   0.315319   0.439615   x
            x  Ni              189         0.938294   0.318270   0.438523   x
            x  Ni              190         0.179273   0.695613   0.562867   x
            x  Ni              191         0.307587   0.689911   0.436509   x
            x  Ni              192         0.177946   0.570074   0.436280   x
            x  Ni              193         0.554927   0.693611   0.441480   x
            x  Ni              194         0.682683   0.692199   0.558659   x
            x  Ni              195         0.935543   0.567928   0.438163   x
            xxxxxxxxxxxxxxxxxxxxxxxxxxxxxxxxxxxxxxxxxxxxxxxxxxxxxxxxxxxxxxxxx
 
 
------------------------------------------------------------------------ <-- SCF
SCF loop      Energy           Fermi           Energy gain       Timer   <-- SCF
                               energy          per atom          (sec)   <-- SCF
------------------------------------------------------------------------ <-- SCF
Initial  -2.75161697E+005  0.00000000E+000                     27769.93  <-- SCF
      1  -2.75166463E+005  4.34727084E+000   1.86893425E-002   27940.29  <-- SCF
      2  -2.75166464E+005  4.34727089E+000   3.12132612E-006   28148.55  <-- SCF
      3  -2.75166512E+005  4.35062583E+000   1.87085171E-004   28352.11  <-- SCF
      4  -2.75166463E+005  4.34734273E+000  -1.92002193E-004   28552.92  <-- SCF
