 +-------------------------------------------------+
 |                                                 |
 |      CCC   AA    SSS  TTTTT  EEEEE  PPPP        |
 |     C     A  A  S       T    E      P   P       |
 |     C     AAAA   SS     T    EEE    PPPP        |
 |     C     A  A     S    T    E      P           |
 |      CCC  A  A  SSS     T    EEEEE  P           |
 |                                                 |
 +-------------------------------------------------+
 |                                                 |
 | Welcome to Academic Release CASTEP version 22.11|
 | Ab Initio Total Energy Program                  |
 |                                                 |
 | Authors:                                        |
 | M. Segall, M. Probert, C. Pickard, P. Hasnip,   |
 | S. Clark, K. Refson, J. R. Yates, M. Payne      |
 |                                                 |
 | Contributors:                                   |
 | P. Lindan, P. Haynes, J. White, V. Milman,      |
 | N. Govind, M. Gibson, P. Tulip, V. Cocula,      |
 | B. Montanari, D. Quigley, M. Glover,            |
 | L. Bernasconi, A. Perlov, M. Plummer,           |
 | E. McNellis, J. Meyer, J. Gale, D. Jochym       |
 | J. Aarons, B. Walker, R. Gillen, D. Jones       |
 | T. Green, I. J. Bush, C. J. Armstrong,          |
 | E. J. Higgins, E. L. Brown, M. S. McFly,        |
 | J. Wilkins, B-C. Shih, P. J. P. Byrne,          |
 | R. J. Maurer, J. C. Womack, J. Dziedzic,        |
 | A. Bartok-Partay, L. LeBlanc, T. K. Stenczel,   |
 | J. Kermode, S. Sturniolo, B. Shi, B. Durham     |
 | M. Evans, M. J. Smith                           |
 |                                                 |
 | Copyright (c) 2000 - 2021                       |
 |                                                 |
 |     Distributed under license from Cambridge    |
 |     Enterprise for academic use only.           |
 |                                                 |
 | Please cite                                     |
 |                                                 |
 |     "First principles methods using CASTEP"     |
 |                                                 |
 |         Zeitschrift fuer Kristallographie       |
 |           220(5-6) pp. 567-570 (2005)           |
 |                                                 |
 | S. J. Clark, M. D. Segall, C. J. Pickard,       |
 | P. J. Hasnip, M. J. Probert, K. Refson,         |
 | M. C. Payne                                     |
 |                                                 |
 |       in all publications arising from          |
 |              your use of CASTEP                 |
 |                                                 |
 +-------------------------------------------------+
 |                                                 |
 |              http://www.castep.org              |
 |                                                 |
 +-------------------------------------------------+
 
 
 
 Compiled for linux_x86_64_ifort on Wed, 18 Jan 2023 15:42:19 +0000
 from code version b807d1bba+  Castep221_branch  Wed Sep 14 11:18:35 2022 +0100
 Compiler: Intel Fortran 19.0.5.281; Optimisation: fast
 MATHLIBS: Intel MKL(2019.0.5) (LAPACK version 3.7.0)
 FFT Lib : mkl
 Fundamental constants values: CODATA 2014
 
 Run started: Thu, 27 Apr 2023 01:18:05 +0100
 
 Atomic calculation performed for Al: 1s2 2s2 2p6 3s2 3p1
 
 Converged in 52 iterations to an ae energy of -6606.982 eV
 
   ============================================================                
   | Pseudopotential Report - Date of generation 27-04-2023   |                
   ------------------------------------------------------------                
   | Element: Al Ionic charge:  3.00 Level of theory: RPBE    |                
   | Atomic Solver: Koelling-Harmon                           |                
   |                                                          |                
   |               Reference Electronic Structure             |                
   |         Orbital         Occupation         Energy        |                
   |            3s              2.000           -0.284        |                
   |            3p              1.000           -0.100        |                
   |                                                          |                
   |                 Pseudopotential Definition               |                
   |        Beta     l      e      Rc     scheme   norm       |                
   |          1      0   -0.284   2.192     qc      0         |                
   |          2      0    0.250   2.192     qc      0         |                
   |          3      1   -0.100   2.192     qc      0         |                
   |          4      1    0.250   2.192     qc      0         |                
   |          5      2    0.000   2.000     qc      0         |                
   |          6      2    0.250   2.000     qc      0         |                
   |         loc     3    0.000   2.192     pn      0         |                
   |                                                          |                
   | Augmentation charge Rinner = 1.398                       |                
   | Partial core correction Rc = 1.398                       |                
   ------------------------------------------------------------                
   | "3|2.2|2.2|1.4|4|5|5|30:31:32U2U2"                       |                
   ------------------------------------------------------------                
   |      Author: Chris J. Pickard, Cambridge University      |                
   ============================================================                
 
 Atomic calculation performed for Ni: 1s2 2s2 2p6 3s2 3p6 3d8 4s2
 
 Converged in 109 iterations to an ae energy of -41381.414 eV
 
   ============================================================                
   | Pseudopotential Report - Date of generation 27-04-2023   |                
   ------------------------------------------------------------                
   | Element: Ni Ionic charge: 10.00 Level of theory: RPBE    |                
   | Atomic Solver: Koelling-Harmon                           |                
   |                                                          |                
   |               Reference Electronic Structure             |                
   |         Orbital         Occupation         Energy        |                
   |            3d              8.000           -0.324        |                
   |            4s              2.000           -0.204        |                
   |                                                          |                
   |                 Pseudopotential Definition               |                
   |        Beta     l      e      Rc     scheme   norm       |                
   |          1      0   -0.204   2.401     qc      0         |                
   |          2      0    0.250   2.401     qc      0         |                
   |          3      1    0.000   2.401     qc      0         |                
   |          4      1    0.250   2.401     qc      0         |                
   |          5      2   -0.324   1.999     qc      0         |                
   |          6      2    0.250   1.999     qc      0         |                
   |         loc     3    0.000   2.401     pn      0         |                
   |                                                          |                
   | Augmentation charge Rinner = 1.001                       |                
   | Partial core correction Rc = 1.001                       |                
   ------------------------------------------------------------                
   | "3|2.4|2.4|1.0|8|9|10|40:41:32U2U2(qc=5.5)"              |                
   ------------------------------------------------------------                
   |      Author: Chris J. Pickard, Cambridge University      |                
   ============================================================                
 
 Pseudo atomic calculation performed for Al 3s2 3p1
 
 Converged in 13 iterations to a total energy of -107.6593 eV
 
 Pseudo atomic calculation performed for Ni 3d8 4s2
 
 Converged in 41 iterations to a total energy of -1369.7890 eV
 Calculation parallelised over 128 processes.
 Data is distributed by G-vector(128-way)

 ************************************ Title ************************************
 

 ***************************** General Parameters ******************************
  
 output verbosity                               : normal  (1)
 write checkpoint data to                       : castep.check
 type of calculation                            : geometry optimization
 stress calculation                             : off
 density difference calculation                 : off
 electron localisation func (ELF) calculation   : off
 Hirshfeld analysis                             : off
 polarisation (Berry phase) analysis            : off
 molecular orbital projected DOS                : off
 deltaSCF calculation                           : off
 unlimited duration calculation
 timing information                             : on
 memory usage estimate                          : on
 write extra output files                       : on
 write final potential to formatted file        : off
 write final density to formatted file          : off
 write BibTeX reference list                    : on
 write OTFG pseudopotential files               : on
 write electrostatic potential file             : on
 write bands file                               : on
 checkpoint writing                             : both castep_bin and check files
  
 output         length unit                     : A
 output           mass unit                     : amu
 output           time unit                     : ps
 output         charge unit                     : e
 output           spin unit                     : hbar/2
 output         energy unit                     : eV
 output          force unit                     : eV/A
 output       velocity unit                     : A/ps
 output       pressure unit                     : GPa
 output     inv_length unit                     : 1/A
 output      frequency unit                     : cm-1
 output force constant unit                     : eV/A**2
 output         volume unit                     : A**3
 output   IR intensity unit                     : (D/A)**2/amu
 output         dipole unit                     : D
 output         efield unit                     : eV/A/e
 output        entropy unit                     : J/mol/K
 output    efield chi2 unit                     : pm/V
  
 wavefunctions paging                           : none
 random number generator seed                   : randomised (11807486)
 data distribution                              : optimal for this architecture
 optimization strategy                          : maximize speed(+++)

 *********************** Exchange-Correlation Parameters ***********************
  
 using functional                               : revised Perdew Burke Ernzerhof
 relativistic treatment                         : Koelling-Harmon
 DFT+D: Semi-empirical dispersion correction    : off

 ************************* Pseudopotential Parameters **************************
  
 pseudopotential representation                 : reciprocal space
 <beta|phi> representation                      : reciprocal space
 spin-orbit coupling                            : off

 **************************** Basis Set Parameters *****************************
  
 plane wave basis set cut-off                   :   900.0000   eV
 size of standard grid                          :     1.7500
 size of   fine   gmax                          :    26.8966   1/A
 finite basis set correction                    : none

 **************************** Electronic Parameters ****************************
  
 number of  electrons                           :  2109.    
 net charge of system                           :  0.000    
 net spin   of system                           :  1.000    
 number of  up  spins                           :  1055.    
 number of down spins                           :  1054.    
 treating system as spin-polarized
 number of bands                                :       1167

 ********************* Electronic Minimization Parameters **********************
  
 Method: Treating system as metallic with density mixing treatment of electrons,
         and number of  SD  steps               :          1
         and number of  CG  steps               :          4
  
 total energy / atom convergence tol.           : 0.1000E-05   eV
 eigen-energy convergence tolerance             : 0.2185E-06   eV
 max force / atom convergence tol.              : ignored
 convergence tolerance window                   :          3   cycles
 max. number of SCF cycles                      :        200
 number of fixed-spin iterations                :         10
 smearing scheme                                : Gaussian
 smearing width                                 : 0.2000       eV
 Fermi energy convergence tolerance             : 0.2721E-13   eV
 periodic dipole correction                     : NONE
 periodically dump wavefunctions to             : castep.wvfn
 dump wavefunctions every                       :          1   SCF cycles

 ************************** Density Mixing Parameters **************************
  
 density-mixing scheme                          : Pulay
 max. length of mixing history                  :         20
 charge density mixing amplitude                : 0.8000    
   spin density mixing amplitude                :  2.000    
 cut-off energy for mixing                      :  900.0       eV

 *********************** Population Analysis Parameters ************************
  
 Population analysis with cutoff                :  3.000       A
 Population analysis output                     : summary and pdos components

 ********************** Geometry Optimization Parameters ***********************
  
 optimization method                            : LBFGS
 max. no. of LBFGS updates                      : unbounded
 variable cell method                           : fixed basis quality
 max. number of steps                           :         30
 estimated bulk modulus                         :  500.0       GPa
 estimated <frequency>                          :  1668.       cm-1
 geom line minimiser                            : on
 with line minimiser tolerance                  :     0.4000
  with spin fully able to relax for all steps
 total energy convergence tolerance             : 0.2000E-04   eV/atom
        max ionic |force| tolerance             : 0.5000E-01   eV/A
 max ionic |displacement| tolerance             : 0.1000E-02   A
   max |stress component| tolerance             : 0.1000       GPa
 convergence tolerance window                   :          2   steps
 backup results every                           :          5   steps
 write geom trajectory file                     : on

 *******************************************************************************
  
 
                           -------------------------------
                                      Unit Cell
                           -------------------------------
        Real Lattice(A)                      Reciprocal Lattice(1/A)
    14.4648280     0.0000000     0.0000000        0.434376773   0.000000000   0.000000000
     0.0000000    14.4648280     0.0000000        0.000000000   0.434376773   0.000000000
     0.0000000     0.0000000    14.4648280        0.000000000   0.000000000   0.434376773
 
                       Lattice parameters(A)       Cell Angles
                    a =     14.464828          alpha =   90.000000
                    b =     14.464828          beta  =   90.000000
                    c =     14.464828          gamma =   90.000000
 
                       Current cell volume =          3026.494030       A**3
                                   density =             4.285146   AMU/A**3
                                           =             7.115653     g/cm^3
 
                           -------------------------------
                                     Cell Contents
                           -------------------------------
                         Total number of ions in cell =  255
                      Total number of species in cell =    2
                        Max number of any one species =  192
 
            xxxxxxxxxxxxxxxxxxxxxxxxxxxxxxxxxxxxxxxxxxxxxxxxxxxxxxxxxxxx
            x  Element    Atom        Fractional coordinates of atoms  x
            x            Number           u          v          w      x
            x----------------------------------------------------------x
            x  Al           1         0.570798   0.307325   0.064198   x 
            x  Al           2         0.819057   0.308742   0.062971   x 
            x  Al           3         0.570197   0.559031   0.065450   x 
            x  Al           4         0.818592   0.558536   0.063122   x 
            x  Al           5         0.575664   0.810196   0.059513   x 
            x  Al           6         0.819278   0.808327   0.062478   x 
            x  Al           7         0.572488   0.058708   0.063300   x 
            x  Al           8         0.819994   0.059065   0.062327   x 
            x  Al           9         0.569081   0.307249   0.312228   x 
            x  Al          10         0.818816   0.308540   0.313186   x 
            x  Al          11         0.573888   0.554640   0.307824   x 
            x  Al          12         0.817936   0.558536   0.312853   x 
            x  Al          13         0.576766   0.812820   0.313217   x 
            x  Al          14         0.818772   0.808213   0.313453   x 
            x  Al          15         0.574185   0.057940   0.309566   x 
            x  Al          16         0.819481   0.058865   0.313371   x 
            x  Al          17         0.571510   0.307998   0.561309   x 
            x  Al          18         0.818069   0.309596   0.562813   x 
            x  Al          19         0.571595   0.558813   0.564418   x 
            x  Al          20         0.817200   0.558487   0.562783   x 
            x  Al          21         0.573845   0.807303   0.565441   x 
            x  Al          22         0.818272   0.807229   0.563301   x 
            x  Al          23         0.577101   0.058338   0.568708   x 
            x  Al          24         0.819172   0.058708   0.563416   x 
            x  Al          25         0.572168   0.308727   0.814435   x 
            x  Al          26         0.818288   0.309688   0.813266   x 
            x  Al          27         0.569539   0.558623   0.815440   x 
            x  Al          28         0.817927   0.558270   0.813451   x 
            x  Al          29         0.570704   0.808307   0.814030   x 
            x  Al          30         0.819379   0.807536   0.812993   x 
            x  Al          31         0.572722   0.058434   0.812050   x 
            x  Al          32         0.820052   0.059027   0.813222   x 
            x  Al          33         0.328450   0.182154   0.934261   x 
            x  Al          34         0.056082   0.058159   0.807401   x 
            x  Al          35         0.192625   0.190353   0.804420   x 
            x  Al          36         0.321693   0.936228   0.938848   x 
            x  Al          37         0.192758   0.930071   0.804664   x 
            x  Al          38         0.318274   0.690301   0.944525   x 
            x  Al          39         0.074380   0.687626   0.929165   x 
            x  Al          40         0.198408   0.187671   0.572150   x 
            x  Al          41         0.067357   0.806282   0.565558   x 
            x  Al          42         0.325862   0.685602   0.690267   x 
            x  Al          43         0.194148   0.669497   0.563901   x 
            x  Al          44         0.330277   0.427187   0.686706   x 
            x  Al          45         0.327660   0.555483   0.820802   x 
            x  Al          46         0.198521   0.431832   0.549247   x 
            x  Al          47         0.065778   0.435062   0.685318   x 
            x  Al          48         0.318264   0.060510   0.312075   x 
            x  Al          49         0.440955   0.057388   0.445079   x 
            x  Al          50         0.185903   0.054619   0.185205   x 
            x  Al          51         0.067526   0.183564   0.441300   x 
            x  Al          52         0.433512   0.813562   0.439547   x 
            x  Al          53         0.071105   0.945381   0.442031   x 
            x  Al          54         0.202186   0.808846   0.431767   x 
            x  Al          55         0.432053   0.679547   0.305943   x 
            x  Al          56         0.426870   0.547085   0.437234   x 
            x  Al          57         0.193349   0.425276   0.317313   x 
            x  Al          58         0.186847   0.186148   0.057752   x 
            x  Al          59         0.434485   0.818186   0.183871   x 
            x  Al          60         0.191445   0.812889   0.186786   x 
            x  Al          61         0.191147   0.425854   0.055475   x 
            x  Al          62         0.192047   0.426939   0.822094   x 
            x  Al          63         0.188435   0.565250   0.184117   x 
            x  Ni           1         0.567623   0.431105   0.187299   x 
            x  Ni           2         0.694615   0.307813   0.188061   x 
            x  Ni           3         0.694278   0.433171   0.063813   x 
            x  Ni           4         0.818746   0.433515   0.187948   x 
            x  Ni           5         0.943096   0.309003   0.188047   x 
            x  Ni           6         0.943093   0.433980   0.062907   x 
            x  Ni           7         0.565079   0.688134   0.189547   x 
            x  Ni           8         0.694132   0.558949   0.187064   x 
            x  Ni           9         0.694146   0.683533   0.063731   x 
            x  Ni          10         0.818959   0.683513   0.188095   x 
            x  Ni          11         0.942723   0.558728   0.188025   x 
            x  Ni          12         0.943059   0.683396   0.062826   x 
            x  Ni          13         0.569434   0.932713   0.186081   x 
            x  Ni          14         0.695802   0.809078   0.187221   x 
            x  Ni          15         0.696523   0.934558   0.061901   x 
            x  Ni          16         0.819951   0.933668   0.187677   x 
            x  Ni          17         0.942931   0.808296   0.187930   x 
            x  Ni          18         0.943379   0.933346   0.062524   x 
            x  Ni          19         0.568970   0.183138   0.187661   x 
            x  Ni          20         0.696063   0.058484   0.187144   x 
            x  Ni          21         0.695103   0.183461   0.062807   x 
            x  Ni          22         0.819450   0.183760   0.187950   x 
            x  Ni          23         0.943295   0.058668   0.187930   x 
            x  Ni          24         0.943494   0.184092   0.062746   x 
            x  Ni          25         0.445552   0.432159   0.560862   x 
            x  Ni          26         0.692617   0.308501   0.437148   x 
            x  Ni          27         0.694337   0.432102   0.312351   x 
            x  Ni          28         0.817780   0.433922   0.437880   x 
            x  Ni          29         0.942803   0.309283   0.438289   x 
            x  Ni          30         0.942508   0.434056   0.313154   x 
            x  Ni          31         0.559183   0.681258   0.432584   x 
            x  Ni          32         0.691973   0.558994   0.436991   x 
            x  Ni          33         0.693333   0.683437   0.312704   x 
            x  Ni          34         0.818122   0.683055   0.437958   x 
            x  Ni          35         0.942476   0.558723   0.438139   x 
            x  Ni          36         0.942828   0.683423   0.313173   x 
            x  Ni          37         0.567873   0.934567   0.440224   x 
            x  Ni          38         0.692928   0.807438   0.438733   x 
            x  Ni          39         0.696634   0.934499   0.313293   x 
            x  Ni          40         0.819167   0.932966   0.438710   x 
            x  Ni          41         0.942886   0.808002   0.438436   x 
            x  Ni          42         0.942910   0.933244   0.313303   x 
            x  Ni          43         0.568088   0.180645   0.438116   x 
            x  Ni          44         0.694573   0.058229   0.438635   x 
            x  Ni          45         0.694746   0.183557   0.313024   x 
            x  Ni          46         0.818883   0.183995   0.438121   x 
            x  Ni          47         0.943114   0.058528   0.438528   x 
            x  Ni          48         0.943139   0.183857   0.313244   x 
            x  Ni          49         0.568249   0.433523   0.688110   x 
            x  Ni          50         0.693877   0.309563   0.688167   x 
            x  Ni          51         0.692839   0.433673   0.562219   x 
            x  Ni          52         0.817794   0.434176   0.688085   x 
            x  Ni          53         0.943002   0.309688   0.687961   x 
            x  Ni          54         0.942514   0.434349   0.563091   x 
            x  Ni          55         0.567228   0.683170   0.689863   x 
            x  Ni          56         0.692899   0.558387   0.688867   x 
            x  Ni          57         0.692276   0.682537   0.562060   x 
            x  Ni          58         0.818033   0.682540   0.688005   x 
            x  Ni          59         0.942573   0.558622   0.687985   x 
            x  Ni          60         0.942641   0.683031   0.563183   x 
            x  Ni          61         0.570417   0.932488   0.689766   x 
            x  Ni          62         0.694848   0.807216   0.689389   x 
            x  Ni          63         0.696156   0.932584   0.564102   x 
            x  Ni          64         0.819770   0.932703   0.688509   x 
            x  Ni          65         0.943123   0.807686   0.687988   x 
            x  Ni          66         0.943060   0.933004   0.563394   x 
            x  Ni          67         0.571168   0.183931   0.688744   x 
            x  Ni          68         0.697276   0.058614   0.689650   x 
            x  Ni          69         0.695698   0.184502   0.563097   x 
            x  Ni          70         0.819314   0.184829   0.688362   x 
            x  Ni          71         0.943243   0.058730   0.687990   x 
            x  Ni          72         0.942843   0.184219   0.563199   x 
            x  Ni          73         0.568486   0.433644   0.941252   x 
            x  Ni          74         0.694047   0.308633   0.938968   x 
            x  Ni          75         0.692920   0.434129   0.814064   x 
            x  Ni          76         0.818356   0.433894   0.938325   x 
            x  Ni          77         0.943342   0.309387   0.937723   x 
            x  Ni          78         0.942895   0.434194   0.812923   x 
            x  Ni          79         0.568460   0.684256   0.939270   x 
            x  Ni          80         0.693294   0.558542   0.939478   x 
            x  Ni          81         0.693692   0.682673   0.813819   x 
            x  Ni          82         0.818707   0.682840   0.938151   x 
            x  Ni          83         0.943093   0.558603   0.937952   x 
            x  Ni          84         0.943009   0.682946   0.812900   x 
            x  Ni          85         0.569831   0.934729   0.936742   x 
            x  Ni          86         0.695905   0.808501   0.937033   x 
            x  Ni          87         0.695891   0.933164   0.813248   x 
            x  Ni          88         0.820043   0.933684   0.937385   x 
            x  Ni          89         0.943207   0.808042   0.937686   x 
            x  Ni          90         0.943747   0.933181   0.812766   x 
            x  Ni          91         0.569077   0.182441   0.938235   x 
            x  Ni          92         0.695450   0.058991   0.937384   x 
            x  Ni          93         0.695217   0.184308   0.813639   x 
            x  Ni          94         0.819563   0.184277   0.937845   x 
            x  Ni          95         0.943918   0.058844   0.937520   x 
            x  Ni          96         0.943547   0.184519   0.812783   x 
            x  Ni          97         0.072820   0.430823   0.185869   x 
            x  Ni          98         0.191609   0.305721   0.185556   x 
            x  Ni          99         0.064533   0.305682   0.059521   x 
            x  Ni         100         0.311179   0.431727   0.184407   x 
            x  Ni         101         0.442378   0.306254   0.188343   x 
            x  Ni         102         0.316401   0.557845   0.061823   x 
            x  Ni         103         0.319729   0.303876   0.061663   x 
            x  Ni         104         0.065571   0.560517   0.057032   x 
            x  Ni         105         0.065467   0.687886   0.186628   x 
            x  Ni         106         0.313996   0.686024   0.181631   x 
            x  Ni         107         0.441860   0.557869   0.185864   x 
            x  Ni         108         0.444484   0.687109   0.065672   x 
            x  Ni         109         0.189379   0.687109   0.060575   x 
            x  Ni         110         0.065693   0.934787   0.185590   x 
            x  Ni         111         0.316305   0.814191   0.061659   x 
            x  Ni         112         0.189746   0.937249   0.057341   x 
            x  Ni         113         0.313928   0.939704   0.184800   x 
            x  Ni         114         0.318325   0.812060   0.308927   x 
            x  Ni         115         0.445233   0.936867   0.061716   x 
            x  Ni         116         0.065408   0.180893   0.184511   x 
            x  Ni         117         0.315777   0.062078   0.059481   x 
            x  Ni         118         0.066464   0.058780   0.055885   x 
            x  Ni         119         0.314781   0.179514   0.185781   x 
            x  Ni         120         0.443716   0.057317   0.187919   x 
            x  Ni         121         0.445232   0.181849   0.063734   x 
            x  Ni         122         0.192879   0.061632   0.927989   x 
            x  Ni         123         0.067218   0.431116   0.437418   x 
            x  Ni         124         0.193909   0.303402   0.438047   x 
            x  Ni         125         0.064586   0.304305   0.312192   x 
            x  Ni         126         0.444594   0.308715   0.435585   x 
            x  Ni         127         0.439049   0.432793   0.310592   x 
            x  Ni         128         0.319341   0.305435   0.312126   x 
            x  Ni         129         0.072600   0.684417   0.439996   x 
            x  Ni         130         0.196492   0.555470   0.433371   x 
            x  Ni         131         0.192010   0.685066   0.309966   x 
            x  Ni         132         0.068413   0.558097   0.311873   x 
            x  Ni         133         0.317492   0.681111   0.437245   x 
            x  Ni         134         0.565951   0.435191   0.435884   x 
            x  Ni         135         0.313032   0.554792   0.306446   x 
            x  Ni         136         0.066518   0.060096   0.313417   x 
            x  Ni         137         0.070347   0.814669   0.316521   x 
            x  Ni         138         0.315659   0.938032   0.440022   x 
            x  Ni         139         0.444470   0.936234   0.314108   x 
            x  Ni         140         0.191613   0.938107   0.313320   x 
            x  Ni         141         0.195115   0.064177   0.441289   x 
            x  Ni         142         0.190856   0.182540   0.310722   x 
            x  Ni         143         0.319066   0.182744   0.439358   x 
            x  Ni         144         0.443985   0.179712   0.313353   x 
            x  Ni         145         0.065788   0.309420   0.563297   x 
            x  Ni         146         0.450076   0.306914   0.687368   x 
            x  Ni         147         0.322997   0.309977   0.560049   x 
            x  Ni         148         0.067145   0.678680   0.688330   x 
            x  Ni         149         0.066665   0.555755   0.562945   x 
            x  Ni         150         0.198780   0.547837   0.691831   x 
            x  Ni         151         0.445874   0.558395   0.689347   x 
            x  Ni         152         0.444221   0.682069   0.560460   x 
            x  Ni         153         0.320372   0.554751   0.566580   x 
            x  Ni         154         0.065093   0.932006   0.686316   x 
            x  Ni         155         0.193453   0.803181   0.684756   x 
            x  Ni         156         0.192141   0.933263   0.565122   x 
            x  Ni         157         0.318807   0.931887   0.688382   x 
            x  Ni         158         0.446122   0.808735   0.686379   x 
            x  Ni         159         0.444621   0.933304   0.564975   x 
            x  Ni         160         0.316532   0.805852   0.563876   x 
            x  Ni         161         0.065395   0.186413   0.685948   x 
            x  Ni         162         0.191608   0.059443   0.690845   x 
            x  Ni         163         0.068307   0.061986   0.566084   x 
            x  Ni         164         0.321146   0.186987   0.689560   x 
            x  Ni         165         0.446731   0.058290   0.686711   x 
            x  Ni         166         0.445802   0.183245   0.563732   x 
            x  Ni         167         0.318733   0.059994   0.567786   x 
            x  Ni         168         0.065963   0.431186   0.935188   x 
            x  Ni         169         0.194324   0.302353   0.935348   x 
            x  Ni         170         0.194473   0.317870   0.685835   x 
            x  Ni         171         0.063733   0.309104   0.807845   x 
            x  Ni         172         0.320017   0.431182   0.939311   x 
            x  Ni         173         0.447771   0.307435   0.939579   x 
            x  Ni         174         0.447494   0.432406   0.815659   x 
            x  Ni         175         0.323562   0.308949   0.813342   x 
            x  Ni         176         0.066893   0.811450   0.057890   x 
            x  Ni         177         0.193688   0.558506   0.937740   x 
            x  Ni         178         0.199414   0.680507   0.810642   x 
            x  Ni         179         0.066309   0.556881   0.811672   x 
            x  Ni         180         0.442228   0.431550   0.065291   x 
            x  Ni         181         0.443777   0.684438   0.816719   x 
            x  Ni         182         0.445291   0.559905   0.944120   x 
            x  Ni         183         0.067945   0.932977   0.929921   x 
            x  Ni         184         0.194532   0.812052   0.934171   x 
            x  Ni         185         0.066528   0.807408   0.807730   x 
            x  Ni         186         0.445288   0.810998   0.940491   x 
            x  Ni         187         0.445182   0.934125   0.812269   x 
            x  Ni         188         0.321508   0.809845   0.813513   x 
            x  Ni         189         0.066118   0.183337   0.930366   x 
            x  Ni         190         0.320630   0.058498   0.810493   x 
            x  Ni         191         0.446686   0.057961   0.937168   x 
            x  Ni         192         0.447345   0.182812   0.811514   x 
            xxxxxxxxxxxxxxxxxxxxxxxxxxxxxxxxxxxxxxxxxxxxxxxxxxxxxxxxxxxx
 
 
                         No user defined ionic velocities
 
                           -------------------------------
                                   Details of Species
                           -------------------------------
 
                               Mass of species in AMU
                                    Al   26.9815400
                                    Ni   58.6934000
 
                          Electric Quadrupole Moment (Barn)
                                    Al    0.1466000 Isotope 27
                                    Ni    0.1620000 Isotope 61
 
                          Files used for pseudopotentials:
                                    Al 3|2.2|2.2|1.4|4|5|5|30:31:32U2U2
                                    Ni 3|2.4|2.4|1.0|8|9|10|40:41:32U2U2(qc=5.5)
 
                           -------------------------------
                              k-Points For BZ Sampling
                           -------------------------------
                       MP grid size for SCF calculation is  1  1  1
                            with an offset of   0.000  0.000  0.000
                       Number of kpoints used =             1
 
                           -------------------------------
                               Symmetry and Constraints
                           -------------------------------
 
                      Maximum deviation from symmetry =  0.00000         ANG
 
                      Number of symmetry operations   =           1
                      Number of ionic constraints     =           3
                      Point group of crystal =     1: C1, 1, 1
                      Space group of crystal =     1: P1, P 1
 
             Set iprint > 1 for details on symmetry rotations/translations
 
                         Centre of mass is constrained
             Set iprint > 1 for details of linear ionic constraints
 
                         Number of cell constraints= 6
                         Cell constraints are:  0 0 0 0 0 0
 
                         External pressure/stress (GPa)
                          0.00000   0.00000   0.00000
                                    0.00000   0.00000
                                              0.00000
 
+---------------- MEMORY AND SCRATCH DISK ESTIMATES PER PROCESS --------------+
|                                                     Memory          Disk    |
| Baseline code, static data and system overhead      855.0 MB         0.0 MB |
| BLAS internal memory storage                          0.0 MB         0.0 MB |
| Model and support data                              349.7 MB         0.0 MB |
| Electronic energy minimisation requirements          97.8 MB         0.0 MB |
| Force calculation requirements                        2.3 MB         0.0 MB |
|                                               ----------------------------- |
| Approx. total storage required per process         1302.5 MB         0.0 MB |
|                                                                             |
| Requirements will fluctuate during execution and may exceed these estimates |
+-----------------------------------------------------------------------------+
Calculating approximate eigenstates for fixed initial Hamiltonian
Cut-off for approx. calculation is  550.359 eV
Resetting cut-off to  900.000 eV
Calculating total energy with cut-off of  900.000 eV.
------------------------------------------------------------------------ <-- SCF
SCF loop      Energy           Fermi           Energy gain       Timer   <-- SCF
                               energy          per atom          (sec)   <-- SCF
------------------------------------------------------------------------ <-- SCF
Initial  -2.71893324E+005  0.00000000E+000                      1470.80  <-- SCF
      1  -2.71332007E+005  3.11998722E+000  -2.20124173E+000    1536.02  <-- SCF
      2  -2.71491940E+005  3.14998093E+000   6.27188174E-001    1601.07  <-- SCF
      3  -2.72647861E+005  8.90051690E+000   4.53302385E+000    1689.29  <-- SCF
      4  -2.72705423E+005  8.91008202E+000   2.25734682E-001    1756.97  <-- SCF
      5  -2.71602951E+005  6.44905104E+000  -4.32342128E+000    1857.10  <-- SCF
      6  -2.71757967E+005  6.42476470E+000   6.07905530E-001    1932.23  <-- SCF
      7  -2.71449704E+005  4.85412854E+000  -1.20887461E+000    2010.93  <-- SCF
      8  -2.71396318E+005  4.44327667E+000  -2.09355750E-001    2088.41  <-- SCF
      9  -2.71388343E+005  4.40398842E+000  -3.12739923E-002    2156.61  <-- SCF
     10  -2.71391945E+005  4.46150332E+000   1.41239177E-002    2249.24  <-- SCF
     11  -2.72039078E+005  5.89359995E+000   2.53777637E+000    2325.77  <-- SCF
     12  -2.71564551E+005  4.72035564E+000  -1.86088772E+000    2452.76  <-- SCF
     13  -2.71454503E+005  4.28989298E+000  -4.31563383E-001    2529.10  <-- SCF
     14  -2.71410278E+005  4.21040217E+000  -1.73430878E-001    2601.20  <-- SCF
     15  -2.71400393E+005  4.29477371E+000  -3.87644920E-002    2668.33  <-- SCF
     16  -2.71395032E+005  4.34130773E+000  -2.10225433E-002    2747.89  <-- SCF
     17  -2.71391311E+005  4.34589741E+000  -1.45936941E-002    2833.88  <-- SCF
     18  -2.71388687E+005  4.34162498E+000  -1.02879204E-002    2925.99  <-- SCF
     19  -2.71386565E+005  4.34007966E+000  -8.32289779E-003    2999.98  <-- SCF
     20  -2.71385885E+005  4.35027381E+000  -2.66714599E-003    3088.61  <-- SCF
     21  -2.71385246E+005  4.36819413E+000  -2.50655811E-003    3161.53  <-- SCF
     22  -2.71385045E+005  4.38230593E+000  -7.85834298E-004    3235.29  <-- SCF
     23  -2.71384897E+005  4.39335727E+000  -5.80554698E-004    3327.88  <-- SCF
     24  -2.71384777E+005  4.38860772E+000  -4.72923508E-004    3403.10  <-- SCF
     25  -2.71384741E+005  4.37493981E+000  -1.41266033E-004    3468.40  <-- SCF
     26  -2.71384737E+005  4.37225360E+000  -1.44655123E-005    3534.36  <-- SCF
     27  -2.71384713E+005  4.37568974E+000  -9.52770515E-005    3597.61  <-- SCF
     28  -2.71384708E+005  4.37754395E+000  -1.88615837E-005    3666.27  <-- SCF
     29  -2.71384715E+005  4.37918140E+000   2.68452567E-005    3750.59  <-- SCF
     30  -2.71384711E+005  4.37999056E+000  -1.26123363E-005    3825.69  <-- SCF
     31  -2.71384709E+005  4.37943226E+000  -1.09640011E-005    3890.93  <-- SCF
     32  -2.71384706E+005  4.37854512E+000  -9.79622228E-006    3966.75  <-- SCF
     33  -2.71384706E+005  4.37858238E+000  -4.55889027E-007    4019.83  <-- SCF
     34  -2.71384706E+005  4.37871355E+000   9.37980137E-008    4072.87  <-- SCF
------------------------------------------------------------------------ <-- SCF
 
Integrated Spin Density     =    0.750786E-01 hbar/2
Integrated |Spin Density|   =    0.151186     hbar/2
 
Final energy, E             =  -271380.1548818     eV
Final free energy (E-TS)    =  -271384.7061057     eV
(energies not corrected for finite basis set)
 
NB est. 0K energy (E-0.5TS)      =  -271382.4304937     eV
 

Writing analysis data to castep.castep_bin

Writing model to castep.check
 
+---------------- MEMORY AND SCRATCH DISK ESTIMATES PER PROCESS --------------+
|                                                     Memory          Disk    |
| Model and support data                              360.0 MB         0.0 MB |
| Electronic energy minimisation requirements          97.8 MB         0.0 MB |
| Geometry minimisation requirements                  126.4 MB         0.0 MB |
|                                               ----------------------------- |
| Approx. total storage required per process          584.2 MB         0.0 MB |
|                                                                             |
| Requirements will fluctuate during execution and may exceed these estimates |
+-----------------------------------------------------------------------------+
 
 
 ************************************** Forces **************************************
 *                                                                                  *
 *                           Cartesian components (eV/A)                            *
 * -------------------------------------------------------------------------------- *
 *                         x                    y                    z              *
 *                                                                                  *
 * Al              1     -0.10995             -0.00470             -0.03501         *
 * Al              2      0.04038             -0.01954             -0.00457         *
 * Al              3     -0.10339             -0.02521              0.00277         *
 * Al              4      0.09018             -0.01277              0.00317         *
 * Al              5     -0.07959              0.00385             -0.12681         *
 * Al              6      0.11950              0.02420              0.00386         *
 * Al              7     -0.15172              0.03677             -0.02787         *
 * Al              8      0.06731              0.01605             -0.02644         *
 * Al              9     -0.05332              0.04291              0.00890         *
 * Al             10      0.05018              0.00909             -0.02409         *
 * Al             11      0.10648             -0.15918             -0.05107         *
 * Al             12      0.08770             -0.00006             -0.01347         *
 * Al             13      0.38443              0.13544             -0.03670         *
 * Al             14      0.05460             -0.03342             -0.04230         *
 * Al             15     -0.01277             -0.00553             -0.12570         *
 * Al             16      0.08237              0.02984             -0.02436         *
 * Al             17     -0.14046             -0.02153             -0.00330         *
 * Al             18      0.03941              0.01506             -0.00670         *
 * Al             19     -0.07211             -0.05326              0.07203         *
 * Al             20      0.06870              0.00385             -0.00863         *
 * Al             21     -0.02195              0.05463              0.15458         *
 * Al             22      0.12847              0.00081              0.00652         *
 * Al             23      0.01876              0.01364              0.13352         *
 * Al             24      0.02843              0.00157             -0.01960         *
 * Al             25     -0.11411             -0.06409             -0.00642         *
 * Al             26     -0.00871             -0.01244              0.01259         *
 * Al             27     -0.11577             -0.00401              0.00973         *
 * Al             28      0.07834              0.01813              0.00543         *
 * Al             29     -0.14289              0.06297              0.02055         *
 * Al             30      0.05650              0.00230              0.01904         *
 * Al             31     -0.18124              0.02113              0.01737         *
 * Al             32      0.08677             -0.02501              0.03961         *
 * Al             33      0.12710              0.09707              0.11424         *
 * Al             34      0.35038              0.13733              0.29452         *
 * Al             35     -0.01710              0.00655             -0.07149         *
 * Al             36      0.15778              0.04390              0.20803         *
 * Al             37     -0.04995             -0.29166             -0.04214         *
 * Al             38      0.04425              0.07630              0.17458         *
 * Al             39     -0.54770             -0.28034              0.53666         *
 * Al             40      0.13853             -0.17395             -0.06577         *
 * Al             41     -0.73775             -0.05179              0.59258         *
 * Al             42      0.20941              0.20630             -0.20756         *
 * Al             43     -0.03880             -0.16872             -0.04385         *
 * Al             44      0.15014             -0.13156             -0.37311         *
 * Al             45     -0.05415              0.01261              0.18820         *
 * Al             46      0.09159              0.08699             -0.24761         *
 * Al             47     -0.65802             -0.05940              0.07512         *
 * Al             48     -0.25660             -0.08310             -0.03059         *
 * Al             49     -0.00384              0.17840              0.13387         *
 * Al             50     -0.29179              0.05641             -0.03675         *
 * Al             51     -0.42940             -0.01079             -0.67576         *
 * Al             52     -0.15019              0.10651              0.22017         *
 * Al             53     -0.58164             -0.02727             -0.64951         *
 * Al             54      0.04786             -0.00235             -0.17805         *
 * Al             55     -0.27743             -0.05528             -0.15812         *
 * Al             56     -0.15958             -0.42423              0.23907         *
 * Al             57      0.00294             -0.08301              0.04108         *
 * Al             58     -0.07953              0.04309              0.13016         *
 * Al             59     -0.01119              0.11480             -0.27281         *
 * Al             60     -0.18246             -0.03841             -0.14075         *
 * Al             61     -0.01188              0.04994              0.00808         *
 * Al             62     -0.17645              0.00288              0.23031         *
 * Al             63     -0.08554              0.09622             -0.06662         *
 * Ni              1     -0.03741              0.06791              0.02504         *
 * Ni              2      0.01052             -0.00258              0.01517         *
 * Ni              3      0.00344              0.02264              0.01919         *
 * Ni              4      0.09992             -0.00800              0.00795         *
 * Ni              5      0.16989             -0.00549             -0.02971         *
 * Ni              6      0.16314              0.04751              0.00866         *
 * Ni              7      0.10913              0.18051              0.37730         *
 * Ni              8      0.03782             -0.00593              0.00951         *
 * Ni              9      0.03042              0.00528             -0.00811         *
 * Ni             10     -0.00852              0.00220              0.03143         *
 * Ni             11      0.39311             -0.07616             -0.02929         *
 * Ni             12      0.20410              0.08830             -0.03681         *
 * Ni             13      0.09177             -0.15548              0.17211         *
 * Ni             14     -0.06378             -0.02688              0.00152         *
 * Ni             15     -0.09082             -0.02532              0.03874         *
 * Ni             16     -0.01983              0.00264             -0.01569         *
 * Ni             17      0.14916              0.11606              0.01472         *
 * Ni             18      0.11802              0.00138             -0.16386         *
 * Ni             19     -0.00206             -0.01657              0.08274         *
 * Ni             20      0.05759              0.01646              0.00506         *
 * Ni             21     -0.00951             -0.00024             -0.00851         *
 * Ni             22      0.03047              0.00575             -0.01991         *
 * Ni             23      0.16509              0.00205             -0.04737         *
 * Ni             24      0.02999             -0.11827             -0.12950         *
 * Ni             25      0.20664             -0.05211             -0.00968         *
 * Ni             26      0.15099              0.02289              0.00105         *
 * Ni             27     -0.02282              0.01856              0.00999         *
 * Ni             28      0.00903              0.01834             -0.05654         *
 * Ni             29      0.11683              0.10565             -0.01612         *
 * Ni             30      0.28654             -0.04948             -0.08993         *
 * Ni             31      0.17784              0.10318             -0.47201         *
 * Ni             32      0.00580             -0.01760             -0.00181         *
 * Ni             33     -0.06269              0.00940             -0.00387         *
 * Ni             34     -0.04985             -0.06520             -0.01912         *
 * Ni             35      0.26113             -0.01193             -0.00552         *
 * Ni             36      0.31771              0.08488              0.06541         *
 * Ni             37      0.20764             -0.06142             -0.07060         *
 * Ni             38      0.08323              0.00944              0.01656         *
 * Ni             39     -0.07890             -0.00296              0.01774         *
 * Ni             40     -0.00233             -0.03627             -0.02559         *
 * Ni             41      0.40667              0.00723             -0.02951         *
 * Ni             42      0.23022              0.06961             -0.05591         *
 * Ni             43      0.09742             -0.08553              0.00421         *
 * Ni             44      0.07912              0.00337             -0.00920         *
 * Ni             45     -0.02697             -0.01413              0.02861         *
 * Ni             46      0.02297              0.05896             -0.00515         *
 * Ni             47     -0.11779              0.11269              0.10250         *
 * Ni             48     -0.02997             -0.09302             -0.11285         *
 * Ni             49      0.10652             -0.04439             -0.01251         *
 * Ni             50      0.03023             -0.01549             -0.00536         *
 * Ni             51     -0.02085              0.02109             -0.03168         *
 * Ni             52      0.07049             -0.00658             -0.00575         *
 * Ni             53     -0.09177             -0.17738             -0.12668         *
 * Ni             54     -0.11224             -0.04068             -0.25891         *
 * Ni             55      0.10750              0.05766             -0.18525         *
 * Ni             56      0.03275              0.03179             -0.01269         *
 * Ni             57     -0.03710              0.00398              0.00846         *
 * Ni             58     -0.01798              0.01727             -0.03534         *
 * Ni             59      0.00689              0.15117             -0.04613         *
 * Ni             60      0.16111             -0.16242             -0.06546         *
 * Ni             61      0.08961              0.05034             -0.16022         *
 * Ni             62      0.00087             -0.03054             -0.00267         *
 * Ni             63     -0.10991             -0.00503             -0.05756         *
 * Ni             64     -0.02930              0.01459              0.01895         *
 * Ni             65     -0.00016             -0.11090              0.09704         *
 * Ni             66      0.12315              0.03028             -0.03389         *
 * Ni             67      0.08719             -0.06536             -0.11467         *
 * Ni             68      0.00527              0.00507             -0.00732         *
 * Ni             69     -0.03463             -0.02200             -0.02834         *
 * Ni             70      0.00151             -0.02993              0.00064         *
 * Ni             71     -0.26454              0.04889             -0.49697         *
 * Ni             72     -0.10411             -0.01827              0.11670         *
 * Ni             73      0.10140             -0.00767              0.03552         *
 * Ni             74      0.02735             -0.00224              0.00134         *
 * Ni             75      0.01944             -0.00227             -0.01209         *
 * Ni             76     -0.00408             -0.03000              0.04168         *
 * Ni             77      0.05204             -0.06441             -0.12376         *
 * Ni             78     -0.10995              0.01515              0.09993         *
 * Ni             79      0.10684             -0.03003              0.12852         *
 * Ni             80      0.03677              0.02938              0.00036         *
 * Ni             81      0.00527              0.02143             -0.00848         *
 * Ni             82     -0.00573             -0.00750             -0.00648         *
 * Ni             83      0.07344             -0.06163             -0.11353         *
 * Ni             84     -0.01674             -0.04776             -0.15598         *
 * Ni             85      0.11955             -0.01835              0.04815         *
 * Ni             86      0.00081             -0.00577             -0.01013         *
 * Ni             87     -0.01456             -0.01000             -0.00157         *
 * Ni             88     -0.05473              0.02486              0.02110         *
 * Ni             89      0.10621              0.12284             -0.16696         *
 * Ni             90     -0.26813             -0.35211             -0.13960         *
 * Ni             91      0.13430              0.06106             -0.01040         *
 * Ni             92      0.00709             -0.03029              0.01871         *
 * Ni             93     -0.00351             -0.00358             -0.02607         *
 * Ni             94      0.01338              0.01226              0.01300         *
 * Ni             95     -0.14739             -0.06444              0.08765         *
 * Ni             96     -0.39091              0.28986             -0.14574         *
 * Ni             97     -0.30902              0.32150              0.03802         *
 * Ni             98      0.03274             -0.17151              0.18250         *
 * Ni             99      0.03181              0.27857              0.12530         *
 * Ni            100      0.29192              0.08475              0.26641         *
 * Ni            101     -0.22178             -0.02980             -0.11194         *
 * Ni            102      0.04885             -0.09728              0.15516         *
 * Ni            103      0.10589              0.03657              0.03337         *
 * Ni            104      0.09393             -0.23687              0.45280         *
 * Ni            105     -0.05445             -0.16924              0.04272         *
 * Ni            106      0.33315             -0.06811              0.08912         *
 * Ni            107     -0.17868             -0.14410              0.00590         *
 * Ni            108     -0.06364             -0.00653              0.00796         *
 * Ni            109      0.01451             -0.00878             -0.03975         *
 * Ni            110     -0.14116             -0.17747              0.17148         *
 * Ni            111     -0.22203             -0.05557             -0.05047         *
 * Ni            112      0.03416             -0.14731             -0.04140         *
 * Ni            113      0.26365              0.12893              0.07494         *
 * Ni            114      0.02141             -0.01945              0.01824         *
 * Ni            115     -0.07047              0.00775              0.14077         *
 * Ni            116      0.11707              0.22047              0.18150         *
 * Ni            117      0.07415              0.03556              0.14495         *
 * Ni            118      0.14157             -0.01558              0.13962         *
 * Ni            119      0.17061              0.12198              0.05233         *
 * Ni            120     -0.02523              0.06048             -0.26420         *
 * Ni            121     -0.12667             -0.07215              0.23981         *
 * Ni            122     -0.17111             -0.06654              0.13061         *
 * Ni            123     -0.03750              0.12582             -0.14916         *
 * Ni            124      0.01970             -0.15076              0.01480         *
 * Ni            125      0.17663              0.29477             -0.10874         *
 * Ni            126     -0.22994             -0.05466              0.13378         *
 * Ni            127     -0.05089             -0.00800             -0.16937         *
 * Ni            128     -0.12645             -0.12233             -0.02782         *
 * Ni            129     -0.06143              0.17181             -0.10890         *
 * Ni            130     -0.16315              0.09779             -0.00225         *
 * Ni            131      0.07833             -0.05324              0.13475         *
 * Ni            132      0.05461             -0.01755              0.04000         *
 * Ni            133      0.19245             -0.15221             -0.25421         *
 * Ni            134      0.06673              0.11222             -0.10408         *
 * Ni            135     -0.05286              0.16098              0.08372         *
 * Ni            136     -0.15926              0.06084             -0.13996         *
 * Ni            137     -0.33844             -0.40742             -0.02357         *
 * Ni            138      0.13232              0.08322             -0.01823         *
 * Ni            139     -0.12654             -0.03783             -0.08517         *
 * Ni            140      0.12235             -0.03333             -0.00850         *
 * Ni            141     -0.13869              0.04597              0.19667         *
 * Ni            142      0.19625              0.05232             -0.10172         *
 * Ni            143      0.30444              0.28499             -0.22842         *
 * Ni            144     -0.12768             -0.01591              0.03845         *
 * Ni            145      0.15394              0.03882             -0.08452         *
 * Ni            146     -0.30863             -0.17674              0.17225         *
 * Ni            147      0.04505             -0.03192              0.04530         *
 * Ni            148      0.23345              0.10258             -0.02562         *
 * Ni            149      0.12778             -0.02664             -0.22476         *
 * Ni            150     -0.07960             -0.08186              0.36706         *
 * Ni            151     -0.35362             -0.04648              0.05002         *
 * Ni            152      0.10112              0.02611              0.03770         *
 * Ni            153     -0.17927              0.18646              0.04681         *
 * Ni            154      0.20749              0.21553              0.00626         *
 * Ni            155     -0.01443             -0.12448              0.06643         *
 * Ni            156     -0.05718             -0.13184             -0.28588         *
 * Ni            157      0.26405              0.05344             -0.26915         *
 * Ni            158     -0.18071              0.14473              0.27262         *
 * Ni            159     -0.15090             -0.05028              0.10878         *
 * Ni            160     -0.27740              0.18283              0.21255         *
 * Ni            161     -0.01374              0.04440              0.12351         *
 * Ni            162      0.00584             -0.14129              0.09063         *
 * Ni            163      0.02671              0.05286              0.24662         *
 * Ni            164      0.30505             -0.12707             -0.08420         *
 * Ni            165     -0.33354              0.05029              0.17545         *
 * Ni            166     -0.12917              0.00031             -0.01302         *
 * Ni            167     -0.06119             -0.18226              0.09390         *
 * Ni            168     -0.20838              0.16848              0.23615         *
 * Ni            169     -0.03084             -0.11972             -0.04895         *
 * Ni            170      0.06300              0.25204              0.00865         *
 * Ni            171      0.28154              0.10789              0.34471         *
 * Ni            172      0.27663             -0.14359              0.02134         *
 * Ni            173     -0.27859              0.26677             -0.07835         *
 * Ni            174     -0.06593             -0.00710              0.09614         *
 * Ni            175      0.01932             -0.03803              0.00570         *
 * Ni            176      0.00976             -0.05282              0.23708         *
 * Ni            177      0.06681             -0.01174             -0.18777         *
 * Ni            178      0.08051              0.06830             -0.24903         *
 * Ni            179      0.27236             -0.06896              0.08713         *
 * Ni            180     -0.07597              0.01311             -0.11007         *
 * Ni            181     -0.10363             -0.07672             -0.00133         *
 * Ni            182     -0.17708             -0.17004             -0.12258         *
 * Ni            183      0.06235              0.09620              0.36314         *
 * Ni            184     -0.15380              0.15607              0.00347         *
 * Ni            185      0.14173             -0.04324              0.00573         *
 * Ni            186     -0.00813             -0.11069             -0.16118         *
 * Ni            187     -0.07488             -0.09671             -0.18243         *
 * Ni            188      0.04741              0.16969             -0.07549         *
 * Ni            189     -0.04929              0.07334              0.28939         *
 * Ni            190      0.12933             -0.01050             -0.20377         *
 * Ni            191     -0.05113              0.04623             -0.11078         *
 * Ni            192      0.08535              0.02733             -0.15896         *
 *                                                                                  *
 ************************************************************************************
 LBFGS: finished iteration     0 with enthalpy= -2.71384706E+005 eV
  
 +-----------+-----------------+-----------------+------------+-----+ <-- LBFGS
 | Parameter |      value      |    tolerance    |    units   | OK? | <-- LBFGS
 +-----------+-----------------+-----------------+------------+-----+ <-- LBFGS
 |  dE/ion   |   0.000000E+000 |   2.000000E-005 |         eV | No  | <-- LBFGS
 |  |F|max   |   9.476856E-001 |   5.000000E-002 |       eV/A | No  | <-- LBFGS
 |  |dR|max  |   0.000000E+000 |   1.000000E-003 |          A | No  | <-- LBFGS
 +-----------+-----------------+-----------------+------------+-----+ <-- LBFGS
  

================================================================================
 Starting LBFGS iteration          1 ...
================================================================================
  
 +------------+-------------+-------------+-----------------+ <-- min LBFGS
 |    Step    |   lambda    |   F.delta'  |    enthalpy     | <-- min LBFGS
 +------------+-------------+-------------+-----------------+ <-- min LBFGS
 |  previous  |    0.000000 |    2.111241 |  -271384.706106 | <-- min LBFGS
 +------------+-------------+-------------+-----------------+ <-- min LBFGS
  

--------------------------------------------------------------------------------
 LBFGS: starting iteration         1 with trial guess (lambda=  1.000000)
--------------------------------------------------------------------------------
 
                           -------------------------------
                                     Cell Contents
                           -------------------------------
 
            xxxxxxxxxxxxxxxxxxxxxxxxxxxxxxxxxxxxxxxxxxxxxxxxxxxxxxxxxxxxxxxxx
            x  Element         Atom        Fractional coordinates of atoms  x
            x                 Number           u          v          w      x
            x---------------------------------------------------------------x
            x  Al                1         0.570783   0.307325   0.064193   x
            x  Al                2         0.819062   0.308739   0.062971   x
            x  Al                3         0.570183   0.559027   0.065450   x
            x  Al                4         0.818604   0.558534   0.063122   x
            x  Al                5         0.575653   0.810197   0.059496   x
            x  Al                6         0.819294   0.808330   0.062478   x
            x  Al                7         0.572468   0.058712   0.063296   x
            x  Al                8         0.820003   0.059067   0.062324   x
            x  Al                9         0.569074   0.307255   0.312230   x
            x  Al               10         0.818823   0.308541   0.313183   x
            x  Al               11         0.573902   0.554618   0.307817   x
            x  Al               12         0.817948   0.558536   0.312851   x
            x  Al               13         0.576817   0.812838   0.313212   x
            x  Al               14         0.818779   0.808208   0.313448   x
            x  Al               15         0.574183   0.057939   0.309550   x
            x  Al               16         0.819491   0.058869   0.313368   x
            x  Al               17         0.571491   0.307995   0.561308   x
            x  Al               18         0.818075   0.309598   0.562812   x
            x  Al               19         0.571585   0.558806   0.564428   x
            x  Al               20         0.817209   0.558487   0.562782   x
            x  Al               21         0.573842   0.807310   0.565461   x
            x  Al               22         0.818289   0.807229   0.563302   x
            x  Al               23         0.577103   0.058339   0.568726   x
            x  Al               24         0.819176   0.058708   0.563413   x
            x  Al               25         0.572153   0.308718   0.814435   x
            x  Al               26         0.818287   0.309686   0.813268   x
            x  Al               27         0.569523   0.558622   0.815441   x
            x  Al               28         0.817938   0.558272   0.813452   x
            x  Al               29         0.570685   0.808316   0.814033   x
            x  Al               30         0.819387   0.807536   0.812996   x
            x  Al               31         0.572698   0.058437   0.812053   x
            x  Al               32         0.820063   0.059024   0.813227   x
            x  Al               33         0.328467   0.182167   0.934276   x
            x  Al               34         0.056129   0.058177   0.807440   x
            x  Al               35         0.192623   0.190354   0.804411   x
            x  Al               36         0.321714   0.936233   0.938876   x
            x  Al               37         0.192751   0.930032   0.804658   x
            x  Al               38         0.318280   0.690311   0.944548   x
            x  Al               39         0.074307   0.687589   0.929236   x
            x  Al               40         0.198427   0.187648   0.572142   x
            x  Al               41         0.067259   0.806275   0.565637   x
            x  Al               42         0.325890   0.685630   0.690240   x
            x  Al               43         0.194143   0.669474   0.563895   x
            x  Al               44         0.330297   0.427169   0.686656   x
            x  Al               45         0.327653   0.555485   0.820827   x
            x  Al               46         0.198533   0.431843   0.549214   x
            x  Al               47         0.065690   0.435054   0.685328   x
            x  Al               48         0.318230   0.060499   0.312070   x
            x  Al               49         0.440954   0.057411   0.445097   x
            x  Al               50         0.185864   0.054626   0.185200   x
            x  Al               51         0.067468   0.183563   0.441210   x
            x  Al               52         0.433492   0.813576   0.439577   x
            x  Al               53         0.071028   0.945378   0.441945   x
            x  Al               54         0.202192   0.808845   0.431744   x
            x  Al               55         0.432017   0.679539   0.305922   x
            x  Al               56         0.426849   0.547028   0.437266   x
            x  Al               57         0.193349   0.425265   0.317319   x
            x  Al               58         0.186836   0.186154   0.057770   x
            x  Al               59         0.434484   0.818201   0.183835   x
            x  Al               60         0.191421   0.812884   0.186767   x
            x  Al               61         0.191145   0.425860   0.055476   x
            x  Al               62         0.192024   0.426940   0.822125   x
            x  Al               63         0.188424   0.565263   0.184108   x
            x  Ni                1         0.567618   0.431114   0.187302   x
            x  Ni                2         0.694617   0.307813   0.188063   x
            x  Ni                3         0.694278   0.433174   0.063816   x
            x  Ni                4         0.818759   0.433514   0.187949   x
            x  Ni                5         0.943119   0.309003   0.188043   x
            x  Ni                6         0.943114   0.433986   0.062908   x
            x  Ni                7         0.565093   0.688158   0.189598   x
            x  Ni                8         0.694137   0.558948   0.187065   x
            x  Ni                9         0.694150   0.683533   0.063730   x
            x  Ni               10         0.818958   0.683513   0.188099   x
            x  Ni               11         0.942776   0.558718   0.188021   x
            x  Ni               12         0.943086   0.683408   0.062821   x
            x  Ni               13         0.569446   0.932692   0.186104   x
            x  Ni               14         0.695794   0.809075   0.187222   x
            x  Ni               15         0.696510   0.934555   0.061907   x
            x  Ni               16         0.819948   0.933668   0.187675   x
            x  Ni               17         0.942951   0.808311   0.187932   x
            x  Ni               18         0.943394   0.933347   0.062503   x
            x  Ni               19         0.568970   0.183136   0.187672   x
            x  Ni               20         0.696071   0.058487   0.187144   x
            x  Ni               21         0.695102   0.183461   0.062806   x
            x  Ni               22         0.819454   0.183760   0.187947   x
            x  Ni               23         0.943317   0.058668   0.187923   x
            x  Ni               24         0.943498   0.184076   0.062729   x
            x  Ni               25         0.445580   0.432152   0.560860   x
            x  Ni               26         0.692637   0.308504   0.437148   x
            x  Ni               27         0.694334   0.432104   0.312353   x
            x  Ni               28         0.817781   0.433924   0.437872   x
            x  Ni               29         0.942818   0.309297   0.438286   x
            x  Ni               30         0.942547   0.434050   0.313142   x
            x  Ni               31         0.559206   0.681272   0.432521   x
            x  Ni               32         0.691974   0.558992   0.436990   x
            x  Ni               33         0.693325   0.683438   0.312703   x
            x  Ni               34         0.818115   0.683046   0.437955   x
            x  Ni               35         0.942510   0.558721   0.438138   x
            x  Ni               36         0.942871   0.683435   0.313182   x
            x  Ni               37         0.567900   0.934559   0.440214   x
            x  Ni               38         0.692939   0.807440   0.438735   x
            x  Ni               39         0.696623   0.934498   0.313295   x
            x  Ni               40         0.819167   0.932961   0.438706   x
            x  Ni               41         0.942940   0.808003   0.438432   x
            x  Ni               42         0.942940   0.933254   0.313296   x
            x  Ni               43         0.568101   0.180633   0.438116   x
            x  Ni               44         0.694583   0.058229   0.438634   x
            x  Ni               45         0.694742   0.183555   0.313028   x
            x  Ni               46         0.818886   0.184003   0.438120   x
            x  Ni               47         0.943099   0.058543   0.438542   x
            x  Ni               48         0.943135   0.183845   0.313229   x
            x  Ni               49         0.568263   0.433517   0.688109   x
            x  Ni               50         0.693881   0.309561   0.688167   x
            x  Ni               51         0.692836   0.433676   0.562214   x
            x  Ni               52         0.817804   0.434175   0.688085   x
            x  Ni               53         0.942989   0.309665   0.687944   x
            x  Ni               54         0.942499   0.434343   0.563057   x
            x  Ni               55         0.567242   0.683178   0.689839   x
            x  Ni               56         0.692904   0.558391   0.688866   x
            x  Ni               57         0.692271   0.682537   0.562062   x
            x  Ni               58         0.818030   0.682542   0.688000   x
            x  Ni               59         0.942574   0.558642   0.687979   x
            x  Ni               60         0.942662   0.683010   0.563174   x
            x  Ni               61         0.570429   0.932494   0.689745   x
            x  Ni               62         0.694848   0.807212   0.689388   x
            x  Ni               63         0.696142   0.932583   0.564094   x
            x  Ni               64         0.819766   0.932705   0.688511   x
            x  Ni               65         0.943122   0.807671   0.688001   x
            x  Ni               66         0.943077   0.933008   0.563390   x
            x  Ni               67         0.571179   0.183923   0.688729   x
            x  Ni               68         0.697276   0.058614   0.689649   x
            x  Ni               69         0.695693   0.184499   0.563093   x
            x  Ni               70         0.819314   0.184825   0.688362   x
            x  Ni               71         0.943208   0.058736   0.687924   x
            x  Ni               72         0.942830   0.184216   0.563214   x
            x  Ni               73         0.568499   0.433643   0.941257   x
            x  Ni               74         0.694050   0.308632   0.938968   x
            x  Ni               75         0.692923   0.434128   0.814062   x
            x  Ni               76         0.818356   0.433890   0.938331   x
            x  Ni               77         0.943349   0.309378   0.937707   x
            x  Ni               78         0.942880   0.434196   0.812936   x
            x  Ni               79         0.568474   0.684252   0.939287   x
            x  Ni               80         0.693299   0.558546   0.939478   x
            x  Ni               81         0.693693   0.682676   0.813818   x
            x  Ni               82         0.818706   0.682839   0.938150   x
            x  Ni               83         0.943103   0.558594   0.937937   x
            x  Ni               84         0.943006   0.682940   0.812879   x
            x  Ni               85         0.569847   0.934726   0.936749   x
            x  Ni               86         0.695905   0.808500   0.937032   x
            x  Ni               87         0.695889   0.933163   0.813248   x
[...]
             Al 5  -- Ni 108                 0.17         0.00          2.58673
            Ni 119 -- Ni 144                 0.09         0.00          2.58673
            Ni 126 -- Ni 166                 0.04         0.00          2.58682
            Ni 29  -- Ni 48                  0.01        -0.00          2.58704
             Al 15 -- Ni 144                 0.18         0.00          2.58739
             Al 40 -- Ni 163                 0.16        -0.00          2.58769
            Ni 14  -- Ni 39                  0.02         0.00          2.58792
             Al 61 -- Ni 102                 0.16        -0.00          2.58839
             Al 38 -- Ni 181                 0.19         0.00          2.58843
            Ni 166 -- Ni 167                 0.07         0.00          2.58845
            Ni 29  -- Ni 72                  0.01         0.00          2.58864
             Al 48 -- Ni 141                 0.18        -0.00          2.58867
            Ni 67  -- Ni 165                 0.03         0.00          2.58870
             Al 39 -- Ni 104                 0.18         0.00          2.58890
            Ni 126 -- Ni 144                 0.04         0.00          2.58890
            Ni 99  -- Ni 189                 0.08        -0.00          2.58995
            Ni 34  -- Ni 41                  0.06         0.00          2.58995
             Al 22 -- Ni 62                  0.20        -0.00          2.59010
            Ni 123 -- Ni 130                 0.01         0.00          2.59011
             Al 46 -- Ni 149                 0.14        -0.00          2.59014
            Ni 183 -- Ni 185                 0.07        -0.00          2.59042
            Ni 63  -- Ni 68                  0.02         0.00          2.59073
             Al 21 -- Ni 37                  0.20         0.00          2.59083
             Al 14 -- Ni 16                  0.19        -0.00          2.59093
             Al 20 -- Ni 35                  0.17         0.00          2.59167
            Ni 90  -- Ni 95                  0.01         0.00          2.59207
            Ni 71  -- Ni 96                  0.01         0.00          2.59215
            Ni 55  -- Ni 181                 0.07         0.00          2.59249
            Ni 113 -- Ni 115                 0.04         0.00          2.59291
            Ni 106 -- Ni 114                -0.04         0.00          2.59334
            Ni 47  -- Ni 48                 -0.01         0.00          2.59334
            Ni 12  -- Ni 89                  0.03        -0.00          2.59337
             Al 23 -- Ni 37                  0.20         0.00          2.59341
             Al 23 -- Ni 43                  0.20         0.00          2.59368
            Ni 41  -- Ni 66                 -0.03         0.00          2.59388
            Ni 13  -- Ni 120                 0.04         0.00          2.59420
             Al 41 -- Ni 129                 0.20         0.00          2.59453
            Ni 41  -- Ni 42                  0.03         0.00          2.59476
             Al 43 -- Ni 155                 0.19        -0.00          2.59486
            Ni 37  -- Ni 38                  0.07         0.00          2.59503
            Ni 13  -- Ni 139                -0.01         0.00          2.59521
             Al 9  -- Ni 127                 0.16         0.00          2.59532
            Ni 138 -- Ni 139                -0.01         0.00          2.59540
            Ni 155 -- Ni 156                 0.06         0.00          2.59550
             Al 9  -- Ni 144                 0.19         0.00          2.59556
            Ni 130 -- Ni 149                -0.01         0.00          2.59588
            Ni 98  -- Ni 99                  0.01        -0.00          2.59590
            Ni 150 -- Ni 178                 0.08         0.00          2.59602
            Ni 110 -- Ni 112                 0.05        -0.00          2.59626
            Ni 146 -- Ni 147                 0.07         0.00          2.59655
            Ni 124 -- Ni 125                 0.03        -0.00          2.59677
            Ni 112 -- Ni 122                 0.11         0.00          2.59682
            Ni 26  -- Ni 134                 0.06         0.00          2.59705
            Ni 59  -- Ni 78                 -0.00         0.00          2.59710
            Ni 129 -- Ni 149                 0.09         0.00          2.59737
             Al 16 -- Ni 40                  0.19         0.00          2.59745
             Al 19 -- Ni 151                 0.20         0.00          2.59758
            Ni 127 -- Ni 134                -0.00         0.00          2.59758
            Ni 116 -- Ni 118                 0.02        -0.00          2.59773
            Ni 99  -- Ni 169                 0.01        -0.00          2.59838
            Ni 169 -- Ni 171                -0.00        -0.00          2.59860
            Ni 111 -- Ni 186                 0.08         0.00          2.59896
            Ni 25  -- Ni 151                -0.01         0.00          2.59904
             Al 45 -- Ni 150                 0.16         0.00          2.59911
            Ni 133 -- Ni 153                 0.06         0.00          2.59915
            Ni 38  -- Ni 39                  0.03         0.00          2.59916
             Al 51 -- Ni 142                 0.17         0.00          2.59930
             Al 40 -- Ni 145                 0.17         0.00          2.59933
            Ni 13  -- Ni 20                  0.06         0.00          2.59937
            Ni 155 -- Ni 157                 0.07         0.00          2.59942
             Al 60 -- Ni 113                 0.19         0.00          2.59961
             Al 49 -- Ni 139                 0.18         0.00          2.59995
             Al 34 -- Ni 162                 0.15        -0.00          2.60046
            Ni 68  -- Ni 69                  0.02         0.00          2.60064
             Al 17 -- Ni 49                  0.19         0.00          2.60075
            Ni 35  -- Ni 129                 0.09         0.00          2.60076
             Al 11 -- Ni 107                 0.17         0.00          2.60077
            Ni 13  -- Ni 39                  0.01         0.00          2.60083
             Al 38 -- Ni 188                 0.17        -0.00          2.60094
             Al 58 -- Ni 117                 0.15        -0.00          2.60103
            Ni 152 -- Ni 153                 0.09         0.00          2.60112
            Ni 60  -- Ni 65                  0.01         0.00          2.60152
            Ni 138 -- Ni 159                 0.02         0.00          2.60177
            Ni 54  -- Ni 59                  0.00         0.00          2.60274
            Ni 146 -- Ni 174                 0.01         0.00          2.60349
             Al 22 -- Ni 57                  0.19        -0.00          2.60446
             Al 15 -- Ni 37                  0.19        -0.00          2.60470
            Ni 95  -- Ni 96                  0.01         0.00          2.60500
            Ni 53  -- Ni 78                  0.01         0.00          2.60507
            Ni 53  -- Ni 54                 -0.00         0.00          2.60531
             Al 51 -- Ni 163                 0.16        -0.00          2.60550
            Ni 117 -- Ni 122                 0.03         0.00          2.60552
            Ni 121 -- Ni 173                 0.01         0.00          2.60592
            Ni 129 -- Ni 132                 0.12        -0.00          2.60600
            Ni 47  -- Ni 163                 0.06         0.00          2.60627
            Ni 173 -- Ni 192                 0.00         0.00          2.60665
            Ni 147 -- Ni 170                -0.03         0.00          2.60687
             Al 3  -- Ni 180                 0.17         0.00          2.60739
             Al 17 -- Ni 134                 0.18         0.00          2.60816
            Ni 26  -- Ni 43                  0.06         0.00          2.60849
            Ni 71  -- Ni 90                  0.02         0.00          2.60863
            Ni 111 -- Ni 115                 0.04         0.00          2.60868
            Ni 161 -- Ni 162                -0.01         0.00          2.60872
             Al 48 -- Ni 120                 0.18        -0.00          2.61080
            Ni 178 -- Ni 185                 0.08        -0.00          2.61092
             Al 53 -- Ni 137                 0.18         0.00          2.61111
            Ni 143 -- Ni 167                 0.01         0.00          2.61114
            Ni 151 -- Ni 152                 0.05         0.00          2.61192
            Ni 115 -- Ni 117                 0.10         0.00          2.61225
            Ni 113 -- Ni 139                 0.01         0.00          2.61331
             Al 21 -- Ni 159                 0.16         0.00          2.61338
            Ni 178 -- Ni 184                 0.03         0.00          2.61340
             Al 34 -- Ni 122                 0.16        -0.00          2.61372
            Ni 156 -- Ni 167                 0.11         0.00          2.61402
            Ni 42  -- Ni 47                 -0.01         0.00          2.61414
            Ni 169 -- Ni 172                 0.00         0.00          2.61415
             Al 61 -- Ni 104                 0.15        -0.00          2.61440
            Ni 168 -- Ni 177                 0.03        -0.00          2.61470
            Ni 142 -- Ni 143                 0.03        -0.00          2.61522
            Ni 106 -- Ni 135                 0.00         0.00          2.61532
            Ni 65  -- Ni 66                  0.02         0.00          2.61563
            Ni 133 -- Ni 160                -0.01         0.00          2.61592
            Ni 140 -- Ni 141                 0.07        -0.00          2.61681
            Ni 31  -- Ni 32                  0.07         0.00          2.61709
            Ni 37  -- Ni 39                  0.01         0.00          2.61715
            Ni 172 -- Ni 177                -0.02         0.00          2.61721
             Al 38 -- Ni 177                 0.17         0.00          2.61791
            Ni 138 -- Ni 160                 0.05         0.00          2.61806
             Al 38 -- Ni 178                 0.17         0.00          2.61824
            Ni 43  -- Ni 126                 0.02         0.00          2.61865
             Al 58 -- Ni 119                 0.17         0.00          2.61948
             Al 36 -- Ni 122                 0.17         0.00          2.61981
            Ni 110 -- Ni 118                 0.04        -0.00          2.61990
            Ni 158 -- Ni 181                -0.01         0.00          2.62051
             Al 35 -- Ni 122                 0.18         0.00          2.62067
            Ni 170 -- Ni 171                -0.01         0.00          2.62114
             Al 57 -- Ni 97                  0.14         0.00          2.62116
            Ni 117 -- Ni 191                 0.07        -0.00          2.62178
             Al 58 -- Ni 122                 0.17         0.00          2.62213
            Ni 130 -- Ni 153                 0.09         0.00          2.62260
             Al 5  -- Ni 7                   0.19         0.00          2.62353
            Ni 1   -- Ni 8                   0.03         0.00          2.62419
            Ni 159 -- Ni 160                 0.09         0.00          2.62461
            Ni 65  -- Ni 148                 0.04         0.00          2.62462
            Ni 123 -- Ni 124                 0.01         0.00          2.62484
            Ni 102 -- Ni 109                -0.00         0.00          2.62652
            Ni 158 -- Ni 160                 0.12         0.00          2.62689
             Al 40 -- Ni 143                 0.16         0.00          2.62696
             Al 36 -- Ni 184                 0.17        -0.00          2.62732
             Al 46 -- Ni 145                 0.11         0.00          2.62764
             Al 43 -- Ni 133                 0.17         0.00          2.62867
             Al 50 -- Ni 117                 0.14        -0.00          2.62869
             Al 11 -- Ni 127                 0.15         0.00          2.62970
            Ni 178 -- Ni 179                 0.06         0.00          2.63043
            Ni 156 -- Ni 157                 0.12         0.00          2.63089
            Ni 136 -- Ni 141                 0.01         0.00          2.63197
             Al 52 -- Ni 37                  0.16         0.00          2.63216
            Ni 170 -- Ni 175                -0.03         0.00          2.63249
            Ni 114 -- Ni 138                 0.00         0.00          2.63292
            Ni 155 -- Ni 188                 0.03         0.00          2.63396
            Ni 154 -- Ni 155                 0.06         0.00          2.63399
             Al 39 -- Ni 178                 0.18        -0.00          2.63453
             Al 63 -- Ni 100                 0.16         0.00          2.63560
             Al 5  -- Ni 115                 0.15         0.00          2.63633
            Ni 152 -- Ni 158                 0.04         0.00          2.63763
             Al 38 -- Ni 182                 0.16         0.00          2.63775
             Al 23 -- Ni 166                 0.14         0.00          2.63832
             Al 43 -- Ni 150                 0.15         0.00          2.63965
            Ni 102 -- Ni 108                 0.09         0.00          2.64036
            Ni 156 -- Ni 162                 0.13         0.00          2.64040
             Al 57 -- Ni 132                 0.12        -0.00          2.64075
             Al 43 -- Ni 160                 0.16        -0.00          2.64086
            Ni 162 -- Ni 164                 0.01         0.00          2.64253
            Ni 108 -- Ni 111                 0.01         0.00          2.64286
             Al 37 -- Ni 190                 0.15        -0.00          2.64306
             Al 3  -- Ni 7                   0.18         0.00          2.64510
             Al 23 -- Ni 159                 0.13         0.00          2.64680
             Al 33 -- Ni 122                 0.15         0.00          2.64724
             Al 48 -- Al 49                  0.26         0.00          2.64776
             Al 13 -- Ni 139                 0.17         0.00          2.64799
             Al 37 -- Ni 122                 0.16         0.00          2.64867
             Al 50 -- Al 58                  0.24         0.00          2.64908
            Ni 7   -- Ni 107                -0.01         0.00          2.65070
            Ni 152 -- Ni 160                 0.03         0.00          2.65192
             Al 48 -- Al 50                  0.24         0.00          2.65239
            Ni 25  -- Ni 153                 0.17        -0.00          2.65333
            Ni 114 -- Ni 133                -0.01         0.00          2.65577
             Al 35 -- Ni 189                 0.14         0.00          2.65688
             Al 35 -- Ni 190                 0.13        -0.00          2.65698
            Ni 7   -- Ni 9                   0.06         0.00          2.65972
            Ni 31  -- Ni 38                  0.06         0.00          2.66030
            Ni 148 -- Ni 150                 0.09         0.00          2.66129
             Al 50 -- Ni 119                 0.13         0.00          2.66217
             Al 59 -- Ni 7                   0.14         0.00          2.66372
             Al 42 -- Al 43                  0.25         0.00          2.66439
             Al 23 -- Al 49                  0.24         0.00          2.66552
             Al 38 -- Al 45                  0.23         0.00          2.67051
            Ni 7   -- Ni 8                   0.05         0.00          2.67053
             Al 52 -- Ni 31                  0.15         0.00          2.67221
            Ni 161 -- Ni 170                 0.04         0.00          2.68321
            Ni 168 -- Ni 169                 0.02         0.00          2.68855
            Ni 149 -- Ni 150                 0.02         0.00          2.69051
             Al 19 -- Ni 31                  0.19        -0.00          2.69568
             Al 46 -- Ni 150                 0.12         0.00          2.69800
             Al 5  -- Al 59                  0.21         0.00          2.70709
             Al 55 -- Al 59                  0.22         0.00          2.70715
             Al 45 -- Al 62                  0.19         0.00          2.70824
             Al 36 -- Al 37                  0.22         0.00          2.71776
            Ni 31  -- Ni 57                  0.05         0.00          2.72211
             Al 21 -- Ni 31                  0.15        -0.00          2.72386
             Al 42 -- Al 45                  0.20         0.00          2.72399
            Ni 164 -- Ni 170                 0.03         0.00          2.72624
             Al 44 -- Al 45                  0.19         0.00          2.72656
             Al 21 -- Al 52                  0.21         0.00          2.73078
             Al 34 -- Al 35                  0.19         0.00          2.73613
             Al 33 -- Al 35                  0.20         0.00          2.74065
             Al 33 -- Al 58                  0.20         0.00          2.74265
             Al 61 -- Al 63                  0.20         0.00          2.74317
             Al 56 -- Ni 152                 0.10        -0.00          2.74357
             Al 34 -- Al 37                  0.19         0.00          2.74471
             Al 44 -- Al 46                  0.22         0.00          2.74993
             Al 41 -- Al 43                  0.17         0.00          2.75569
             Al 11 -- Al 55                  0.16         0.00          2.76165
             Al 15 -- Al 49                  0.20         0.00          2.76725
             Al 47 -- Al 62                  0.17         0.00          2.76844
             Al 52 -- Al 55                  0.19         0.00          2.76940
             Al 40 -- Al 51                  0.19         0.00          2.78561
             Al 53 -- Al 54                  0.17         0.00          2.78707
             Al 43 -- Al 54                  0.17         0.00          2.78959
             Al 41 -- Al 53                  0.17         0.00          2.79569
             Al 57 -- Al 63                  0.16         0.00          2.81198
             Al 55 -- Al 56                  0.15         0.00          2.81300
             Al 13 -- Al 52                  0.18         0.00          2.82174
             Al 42 -- Ni 150                 0.08         0.00          2.82899
             Al 19 -- Al 56                  0.15         0.00          2.83050
             Al 13 -- Al 59                  0.16         0.00          2.84434
             Al 46 -- Al 47                  0.13         0.00          2.87607
             Al 41 -- Al 54                  0.12         0.00          2.88185
             Al 44 -- Al 62                  0.12         0.00          2.88669
             Al 56 -- Ni 31                  0.05         0.00          2.92461
             Al 13 -- Al 55                  0.08         0.00          2.93148
             Al 11 -- Al 56                  0.10         0.00          2.93737
================================================================================
 

Writing analysis data to castep.castep_bin

Writing model to castep.check
 
 A BibTeX formatted list of references used in this run has been written to 
 castep.bib
 
Initialisation time =     25.14 s
Calculation time    =  16655.19 s
Finalisation time   =     11.63 s
Total time          =  16691.96 s
Peak Memory Use     = 3973672 kB
 
Overall parallel efficiency rating: Satisfactory (65%)
 
Data was distributed by:-
G-vector (128-way); efficiency rating: Satisfactory (67%)
