 +-------------------------------------------------+
 |                                                 |
 |      CCC   AA    SSS  TTTTT  EEEEE  PPPP        |
 |     C     A  A  S       T    E      P   P       |
 |     C     AAAA   SS     T    EEE    PPPP        |
 |     C     A  A     S    T    E      P           |
 |      CCC  A  A  SSS     T    EEEEE  P           |
 |                                                 |
 +-------------------------------------------------+
 |                                                 |
 | Welcome to Academic Release CASTEP version 20.11|          
 | Ab Initio Total Energy Program                  |
 |                                                 |
 | Authors:                                        |
 | M. Segall, M. Probert, C. Pickard, P. Hasnip,   |
 | S. Clark, K. Refson, J. R. Yates, M. Payne      |
 |                                                 |
 | Contributors:                                   |
 | P. Lindan, P. Haynes, J. White, V. Milman,      |
 | N. Govind, M. Gibson, P. Tulip, V. Cocula,      |
 | B. Montanari, D. Quigley, M. Glover,            |
 | L. Bernasconi, A. Perlov, M. Plummer,           |
 | E. McNellis, J. Meyer, J. Gale, D. Jochym       |
 | J. Aarons, B. Walker, R. Gillen, D. Jones       |
 | T. Green, I. J. Bush, C. J. Armstrong,          |
 | E. J. Higgins, E. L. Brown, M. S. McFly,        |
 | J. Wilkins, B-C. Shih, P. J. P. Byrne,          |
 | R. J. Maurer, J. C. Womack, J. Dziedzic,        |
 | J. R. Kermode, A. Bartok-Partay                 |
 |                                                 |
 | Copyright (c) 2000 - 2020                       |
 |                                                 |
 |     Distributed under license from Cambridge    |
 |     Enterprise for academic use only.           |
 |                                                 |
 | Please cite                                     |
 |                                                 |
 |     "First principles methods using CASTEP"     |
 |                                                 |
 |         Zeitschrift fuer Kristallographie       |
 |           220(5-6) pp. 567-570 (2005)           |
 |                                                 |
 | S. J. Clark, M. D. Segall, C. J. Pickard,       |
 | P. J. Hasnip, M. J. Probert, K. Refson,         |
 | M. C. Payne                                     |
 |                                                 |
 |       in all publications arising from          |
 |              your use of CASTEP                 |
 |                                                 |
 +-------------------------------------------------+
 |                                                 |
 |              http://www.castep.org              |
 |                                                 |
 +-------------------------------------------------+
 
 
 
 Compiled for linux_x86_64_ifort on Wed, 25 Aug 2021 18:50:38 +0100
 from code version e772bf432+  HEAD  Sat Apr 3 17:41:32 2021 +0100
 Compiler: Intel Fortran 19.0.5.281; Optimisation: fast
 MATHLIBS: Intel MKL(2019.0.5) (LAPACK version 3.7.0)
 FFT Lib : mkl
 Fundamental constants values: CODATA 2014
 
 Run started: Mon, 03 Oct 2022 19:17:43 +0100
 
 Atomic calculation performed for Al: 1s2 2s2 2p6 3s2 3p1
 
 Converged in 55 iterations to an ae energy of -6578.725 eV
 
   ============================================================                
   | Pseudopotential Report - Date of generation  3-10-2022   |                
   ------------------------------------------------------------                
   | Element: Al Ionic charge:  3.00 Level of theory: LDA     |                
   | Atomic Solver: Koelling-Harmon                           |                
   |                                                          |                
   |               Reference Electronic Structure             |                
   |         Orbital         Occupation         Energy        |                
   |            3s              2.000           -0.288        |                
   |            3p              1.000           -0.102        |                
   |                                                          |                
   |                 Pseudopotential Definition               |                
   |        Beta     l      e      Rc     scheme   norm       |                
   |          1      0   -0.288   2.192     qc      0         |                
   |          2      0    0.250   2.192     qc      0         |                
   |          3      1   -0.102   2.192     qc      0         |                
   |          4      1    0.250   2.192     qc      0         |                
   |          5      2    0.000   2.000     qc      0         |                
   |          6      2    0.250   2.000     qc      0         |                
   |         loc     3    0.000   2.192     pn      0         |                
   |                                                          |                
   | Augmentation charge Rinner = 1.398                       |                
   | Partial core correction Rc = 1.398                       |                
   ------------------------------------------------------------                
   | "3|2.2|2.2|1.4|4|5|5|30:31:32U2U2"                       |                
   ------------------------------------------------------------                
   |      Author: Chris J. Pickard, Cambridge University      |                
   ============================================================                
 
 Atomic calculation performed for Ni: 1s2 2s2 2p6 3s2 3p6 3d8 4s2
 
 Converged in 110 iterations to an ae energy of -41308.386 eV
 
   ============================================================                
   | Pseudopotential Report - Date of generation  3-10-2022   |                
   ------------------------------------------------------------                
   | Element: Ni Ionic charge: 10.00 Level of theory: LDA     |                
   | Atomic Solver: Koelling-Harmon                           |                
   |                                                          |                
   |               Reference Electronic Structure             |                
   |         Orbital         Occupation         Energy        |                
   |            3d              8.000           -0.336        |                
   |            4s              2.000           -0.216        |                
   |                                                          |                
   |                 Pseudopotential Definition               |                
   |        Beta     l      e      Rc     scheme   norm       |                
   |          1      0   -0.216   2.401     qc      0         |                
   |          2      0    0.250   2.401     qc      0         |                
   |          3      1    0.000   2.401     qc      0         |                
   |          4      1    0.250   2.401     qc      0         |                
   |          5      2   -0.336   1.999     qc      0         |                
   |          6      2    0.250   1.999     qc      0         |                
   |         loc     3    0.000   2.401     pn      0         |                
   |                                                          |                
   | Augmentation charge Rinner = 1.001                       |                
   | Partial core correction Rc = 1.001                       |                
   ------------------------------------------------------------                
   | "3|2.4|2.4|1.0|8|9|10|40:41:32U2U2(qc=5.5)"              |                
   ------------------------------------------------------------                
   |      Author: Chris J. Pickard, Cambridge University      |                
   ============================================================                
 
 Pseudo atomic calculation performed for Al 3s2 3p1
 
 Converged in 15 iterations to a total energy of -105.5942 eV
 
 Pseudo atomic calculation performed for Ni 3d8 4s2
 
 Converged in 38 iterations to a total energy of -1361.6259 eV
 Calculation parallelised over 28 processes.
 Data is distributed by G-vector(28-way)

 ************************************ Title ************************************
 

 ***************************** General Parameters ******************************
  
 output verbosity                               : normal  (1)
 write checkpoint data to                       : castep.check
 type of calculation                            : single point energy
 stress calculation                             : off
 density difference calculation                 : off
 electron localisation func (ELF) calculation   : off
 Hirshfeld analysis                             : off
 molecular orbital projected DOS                : off
 deltaSCF calculation                           : off
 unlimited duration calculation
 timing information                             : on
 memory usage estimate                          : on
 write extra output files                       : on
 write final potential to formatted file        : off
 write final density to formatted file          : off
 write BibTeX reference list                    : on
 write OTFG pseudopotential files               : on
 write electrostatic potential file             : on
 write bands file                               : on
 checkpoint writing                             : both castep_bin and check files
 random number generator seed                   : randomised (191743924)

 *********************** Exchange-Correlation Parameters ***********************
  
 using functional                               : Local Density Approximation
 DFT+D: Semi-empirical dispersion correction    : off

 ************************* Pseudopotential Parameters **************************
  
 pseudopotential representation                 : reciprocal space
 <beta|phi> representation                      : reciprocal space
 spin-orbit coupling                            : off

 **************************** Basis Set Parameters *****************************
  
 basis set accuracy                             : FINE
 finite basis set correction                    : none

 **************************** Electronic Parameters ****************************
  
 number of  electrons                           :  2112.    
 net charge of system                           :  0.000    
 treating system as non-spin-polarized
 number of bands                                :       1267

 ********************* Electronic Minimization Parameters **********************
  
 Method: Treating system as metallic with density mixing treatment of electrons,
         and number of  SD  steps               :          1
         and number of  CG  steps               :          4
  
 total energy / atom convergence tol.           : 0.1000E-04   eV
 eigen-energy convergence tolerance             : 0.1000E-05   eV
 max force / atom convergence tol.              : ignored
 periodic dipole correction                     : NONE

 ************************** Density Mixing Parameters **************************
  
 density-mixing scheme                          : Broyden
 max. length of mixing history                  :         20

 *********************** Population Analysis Parameters ************************
  
 Population analysis with cutoff                :  3.000       A
 Population analysis output                     : summary and pdos components

 *******************************************************************************
  
 
                           -------------------------------
                                      Unit Cell
                           -------------------------------
        Real Lattice(A)                      Reciprocal Lattice(1/A)
    14.3912000     0.0000000     0.0000000        0.436599124   0.000000000   0.000000000
     0.0000000    14.3912000     0.0000000        0.000000000   0.436599124   0.000000000
     0.0000000     0.0000000    14.3912000        0.000000000   0.000000000   0.436599124
 
                       Lattice parameters(A)       Cell Angles
                    a =     14.391200          alpha =   90.000000
                    b =     14.391200          beta  =   90.000000
                    c =     14.391200          gamma =   90.000000
 
                       Current cell volume =          2980.513041       A**3
                                   density =             4.360307   AMU/A**3
                                           =             7.240460     g/cm^3
 
                           -------------------------------
                                     Cell Contents
                           -------------------------------
                         Total number of ions in cell =  256
                      Total number of species in cell =    2
                        Max number of any one species =  192
 
            xxxxxxxxxxxxxxxxxxxxxxxxxxxxxxxxxxxxxxxxxxxxxxxxxxxxxxxxxxxx
            x  Element    Atom        Fractional coordinates of atoms  x
            x            Number           u          v          w      x
            x----------------------------------------------------------x
            x  Al           1         0.937500   0.937500   0.812500   x 
            x  Al           2         0.937500   0.812500   0.937500   x 
            x  Al           3         0.687500   0.812500   0.937500   x 
            x  Al           4         0.687500   0.687500   0.812500   x 
            x  Al           5         0.687500   0.562500   0.937500   x 
            x  Al           6         0.562500   0.687500   0.937500   x 
            x  Al           7         0.312500   0.562500   0.812500   x 
            x  Al           8         0.437500   0.687500   0.812500   x 
            x  Al           9         0.312500   0.437500   0.937500   x 
            x  Al          10         0.187500   0.312500   0.937500   x 
            x  Al          11         0.812500   0.062500   0.812500   x 
            x  Al          12         0.812500   0.187500   0.937500   x 
            x  Al          13         0.687500   0.187500   0.812500   x 
            x  Al          14         0.312500   0.062500   0.812500   x 
            x  Al          15         0.312500   0.187500   0.937500   x 
            x  Al          16         0.062500   0.062500   0.812500   x 
            x  Al          17         0.187500   0.187500   0.812500   x 
            x  Al          18         0.187500   0.062500   0.937500   x 
            x  Al          19         0.812500   0.812500   0.562500   x 
            x  Al          20         0.562500   0.812500   0.562500   x 
            x  Al          21         0.437500   0.812500   0.687500   x 
            x  Al          22         0.312500   0.937500   0.687500   x 
            x  Al          23         0.812500   0.687500   0.687500   x 
            x  Al          24         0.437500   0.562500   0.687500   x 
            x  Al          25         0.187500   0.687500   0.562500   x 
            x  Al          26         0.687500   0.437500   0.562500   x 
            x  Al          27         0.562500   0.437500   0.687500   x 
            x  Al          28         0.062500   0.312500   0.562500   x 
            x  Al          29         0.187500   0.187500   0.562500   x 
            x  Al          30         0.687500   0.812500   0.437500   x 
            x  Al          31         0.562500   0.937500   0.437500   x 
            x  Al          32         0.312500   0.937500   0.437500   x 
            x  Al          33         0.062500   0.812500   0.312500   x 
            x  Al          34         0.187500   0.812500   0.437500   x 
            x  Al          35         0.062500   0.937500   0.437500   x 
            x  Al          36         0.937500   0.687500   0.312500   x 
            x  Al          37         0.937500   0.562500   0.437500   x 
            x  Al          38         0.812500   0.687500   0.437500   x 
            x  Al          39         0.687500   0.562500   0.437500   x 
            x  Al          40         0.062500   0.562500   0.312500   x 
            x  Al          41         0.187500   0.687500   0.312500   x 
            x  Al          42         0.187500   0.562500   0.437500   x 
            x  Al          43         0.312500   0.437500   0.437500   x 
            x  Al          44         0.187500   0.312500   0.437500   x 
            x  Al          45         0.687500   0.187500   0.312500   x 
            x  Al          46         0.687500   0.062500   0.437500   x 
            x  Al          47         0.437500   0.062500   0.437500   x 
            x  Al          48         0.062500   0.187500   0.437500   x 
            x  Al          49         0.562500   0.812500   0.062500   x 
            x  Al          50         0.062500   0.812500   0.062500   x 
            x  Al          51         0.812500   0.562500   0.062500   x 
            x  Al          52         0.937500   0.562500   0.187500   x 
            x  Al          53         0.312500   0.562500   0.062500   x 
            x  Al          54         0.312500   0.687500   0.187500   x 
            x  Al          55         0.062500   0.687500   0.187500   x 
            x  Al          56         0.937500   0.437500   0.062500   x 
            x  Al          57         0.812500   0.437500   0.187500   x 
            x  Al          58         0.687500   0.437500   0.062500   x 
            x  Al          59         0.312500   0.312500   0.062500   x 
            x  Al          60         0.437500   0.437500   0.062500   x 
            x  Al          61         0.062500   0.312500   0.062500   x 
            x  Al          62         0.687500   0.187500   0.062500   x 
            x  Al          63         0.312500   0.187500   0.187500   x 
            x  Al          64         0.187500   0.062500   0.187500   x 
            x  Ni           1         0.062500   0.187500   0.187500   x 
            x  Ni           2         0.187500   0.187500   0.062500   x 
            x  Ni           3         0.062500   0.062500   0.062500   x 
            x  Ni           4         0.437500   0.062500   0.187500   x 
            x  Ni           5         0.437500   0.187500   0.062500   x 
            x  Ni           6         0.312500   0.062500   0.062500   x 
            x  Ni           7         0.562500   0.187500   0.187500   x 
            x  Ni           8         0.687500   0.062500   0.187500   x 
            x  Ni           9         0.562500   0.062500   0.062500   x 
            x  Ni          10         0.812500   0.187500   0.187500   x 
            x  Ni          11         0.937500   0.062500   0.187500   x 
            x  Ni          12         0.937500   0.187500   0.062500   x 
            x  Ni          13         0.812500   0.062500   0.062500   x 
            x  Ni          14         0.062500   0.437500   0.187500   x 
            x  Ni          15         0.187500   0.312500   0.187500   x 
            x  Ni          16         0.187500   0.437500   0.062500   x 
            x  Ni          17         0.312500   0.437500   0.187500   x 
            x  Ni          18         0.437500   0.312500   0.187500   x 
            x  Ni          19         0.562500   0.437500   0.187500   x 
            x  Ni          20         0.687500   0.312500   0.187500   x 
            x  Ni          21         0.562500   0.312500   0.062500   x 
            x  Ni          22         0.937500   0.312500   0.187500   x 
            x  Ni          23         0.812500   0.312500   0.062500   x 
            x  Ni          24         0.187500   0.562500   0.187500   x 
            x  Ni          25         0.187500   0.687500   0.062500   x 
            x  Ni          26         0.062500   0.562500   0.062500   x 
            x  Ni          27         0.437500   0.562500   0.187500   x 
            x  Ni          28         0.437500   0.687500   0.062500   x 
            x  Ni          29         0.562500   0.687500   0.187500   x 
            x  Ni          30         0.687500   0.562500   0.187500   x 
            x  Ni          31         0.687500   0.687500   0.062500   x 
            x  Ni          32         0.562500   0.562500   0.062500   x 
            x  Ni          33         0.812500   0.687500   0.187500   x 
            x  Ni          34         0.937500   0.687500   0.062500   x 
            x  Ni          35         0.062500   0.937500   0.187500   x 
            x  Ni          36         0.187500   0.812500   0.187500   x 
            x  Ni          37         0.187500   0.937500   0.062500   x 
            x  Ni          38         0.312500   0.937500   0.187500   x 
            x  Ni          39         0.437500   0.812500   0.187500   x 
            x  Ni          40         0.437500   0.937500   0.062500   x 
            x  Ni          41         0.312500   0.812500   0.062500   x 
            x  Ni          42         0.562500   0.937500   0.187500   x 
            x  Ni          43         0.687500   0.812500   0.187500   x 
            x  Ni          44         0.687500   0.937500   0.062500   x 
            x  Ni          45         0.812500   0.937500   0.187500   x 
            x  Ni          46         0.937500   0.812500   0.187500   x 
            x  Ni          47         0.937500   0.937500   0.062500   x 
            x  Ni          48         0.812500   0.812500   0.062500   x 
            x  Ni          49         0.187500   0.062500   0.437500   x 
            x  Ni          50         0.187500   0.187500   0.312500   x 
            x  Ni          51         0.062500   0.062500   0.312500   x 
            x  Ni          52         0.312500   0.187500   0.437500   x 
            x  Ni          53         0.437500   0.187500   0.312500   x 
            x  Ni          54         0.312500   0.062500   0.312500   x 
            x  Ni          55         0.562500   0.187500   0.437500   x 
            x  Ni          56         0.562500   0.062500   0.312500   x 
            x  Ni          57         0.812500   0.187500   0.437500   x 
            x  Ni          58         0.937500   0.062500   0.437500   x 
            x  Ni          59         0.937500   0.187500   0.312500   x 
            x  Ni          60         0.812500   0.062500   0.312500   x 
            x  Ni          61         0.062500   0.437500   0.437500   x 
            x  Ni          62         0.187500   0.437500   0.312500   x 
            x  Ni          63         0.062500   0.312500   0.312500   x 
            x  Ni          64         0.437500   0.312500   0.437500   x 
            x  Ni          65         0.437500   0.437500   0.312500   x 
            x  Ni          66         0.312500   0.312500   0.312500   x 
            x  Ni          67         0.562500   0.437500   0.437500   x 
            x  Ni          68         0.687500   0.312500   0.437500   x 
            x  Ni          69         0.687500   0.437500   0.312500   x 
            x  Ni          70         0.562500   0.312500   0.312500   x 
            x  Ni          71         0.812500   0.437500   0.437500   x 
            x  Ni          72         0.937500   0.312500   0.437500   x 
            x  Ni          73         0.937500   0.437500   0.312500   x 
            x  Ni          74         0.812500   0.312500   0.312500   x 
            x  Ni          75         0.062500   0.687500   0.437500   x 
            x  Ni          76         0.312500   0.687500   0.437500   x 
            x  Ni          77         0.437500   0.562500   0.437500   x 
            x  Ni          78         0.437500   0.687500   0.312500   x 
            x  Ni          79         0.312500   0.562500   0.312500   x 
            x  Ni          80         0.562500   0.687500   0.437500   x 
            x  Ni          81         0.687500   0.687500   0.312500   x 
            x  Ni          82         0.562500   0.562500   0.312500   x 
            x  Ni          83         0.812500   0.562500   0.312500   x 
            x  Ni          84         0.187500   0.937500   0.312500   x 
            x  Ni          85         0.437500   0.812500   0.437500   x 
            x  Ni          86         0.437500   0.937500   0.312500   x 
            x  Ni          87         0.312500   0.812500   0.312500   x 
            x  Ni          88         0.687500   0.937500   0.312500   x 
            x  Ni          89         0.562500   0.812500   0.312500   x 
            x  Ni          90         0.812500   0.937500   0.437500   x 
            x  Ni          91         0.937500   0.812500   0.437500   x 
            x  Ni          92         0.937500   0.937500   0.312500   x 
            x  Ni          93         0.812500   0.812500   0.312500   x 
            x  Ni          94         0.062500   0.187500   0.687500   x 
            x  Ni          95         0.187500   0.062500   0.687500   x 
            x  Ni          96         0.062500   0.062500   0.562500   x 
            x  Ni          97         0.312500   0.187500   0.687500   x 
            x  Ni          98         0.437500   0.062500   0.687500   x 
            x  Ni          99         0.437500   0.187500   0.562500   x 
            x  Ni         100         0.312500   0.062500   0.562500   x 
            x  Ni         101         0.562500   0.187500   0.687500   x 
            x  Ni         102         0.687500   0.062500   0.687500   x 
            x  Ni         103         0.687500   0.187500   0.562500   x 
            x  Ni         104         0.562500   0.062500   0.562500   x 
            x  Ni         105         0.812500   0.187500   0.687500   x 
            x  Ni         106         0.937500   0.062500   0.687500   x 
            x  Ni         107         0.937500   0.187500   0.562500   x 
            x  Ni         108         0.812500   0.062500   0.562500   x 
            x  Ni         109         0.062500   0.437500   0.687500   x 
            x  Ni         110         0.187500   0.312500   0.687500   x 
            x  Ni         111         0.187500   0.437500   0.562500   x 
            x  Ni         112         0.312500   0.437500   0.687500   x 
            x  Ni         113         0.437500   0.312500   0.687500   x 
            x  Ni         114         0.437500   0.437500   0.562500   x 
            x  Ni         115         0.312500   0.312500   0.562500   x 
            x  Ni         116         0.687500   0.312500   0.687500   x 
            x  Ni         117         0.562500   0.312500   0.562500   x 
            x  Ni         118         0.812500   0.437500   0.687500   x 
            x  Ni         119         0.937500   0.312500   0.687500   x 
            x  Ni         120         0.937500   0.437500   0.562500   x 
            x  Ni         121         0.812500   0.312500   0.562500   x 
            x  Ni         122         0.062500   0.687500   0.687500   x 
            x  Ni         123         0.187500   0.562500   0.687500   x 
            x  Ni         124         0.062500   0.562500   0.562500   x 
            x  Ni         125         0.312500   0.687500   0.687500   x 
            x  Ni         126         0.437500   0.687500   0.562500   x 
            x  Ni         127         0.312500   0.562500   0.562500   x 
            x  Ni         128         0.562500   0.687500   0.687500   x 
            x  Ni         129         0.687500   0.562500   0.687500   x 
            x  Ni         130         0.687500   0.687500   0.562500   x 
            x  Ni         131         0.562500   0.562500   0.562500   x 
            x  Ni         132         0.937500   0.562500   0.687500   x 
            x  Ni         133         0.937500   0.687500   0.562500   x 
            x  Ni         134         0.812500   0.562500   0.562500   x 
            x  Ni         135         0.062500   0.937500   0.687500   x 
            x  Ni         136         0.187500   0.812500   0.687500   x 
            x  Ni         137         0.187500   0.937500   0.562500   x 
            x  Ni         138         0.062500   0.812500   0.562500   x 
            x  Ni         139         0.437500   0.937500   0.562500   x 
            x  Ni         140         0.312500   0.812500   0.562500   x 
            x  Ni         141         0.562500   0.937500   0.687500   x 
            x  Ni         142         0.687500   0.812500   0.687500   x 
            x  Ni         143         0.687500   0.937500   0.562500   x 
            x  Ni         144         0.812500   0.937500   0.687500   x 
            x  Ni         145         0.937500   0.812500   0.687500   x 
            x  Ni         146         0.937500   0.937500   0.562500   x 
            x  Ni         147         0.062500   0.187500   0.937500   x 
            x  Ni         148         0.437500   0.062500   0.937500   x 
            x  Ni         149         0.437500   0.187500   0.812500   x 
            x  Ni         150         0.562500   0.187500   0.937500   x 
            x  Ni         151         0.687500   0.062500   0.937500   x 
            x  Ni         152         0.562500   0.062500   0.812500   x 
            x  Ni         153         0.937500   0.062500   0.937500   x 
            x  Ni         154         0.937500   0.187500   0.812500   x 
            x  Ni         155         0.062500   0.437500   0.937500   x 
            x  Ni         156         0.187500   0.437500   0.812500   x 
            x  Ni         157         0.062500   0.312500   0.812500   x 
            x  Ni         158         0.437500   0.312500   0.937500   x 
            x  Ni         159         0.437500   0.437500   0.812500   x 
            x  Ni         160         0.312500   0.312500   0.812500   x 
            x  Ni         161         0.562500   0.437500   0.937500   x 
            x  Ni         162         0.687500   0.312500   0.937500   x 
            x  Ni         163         0.687500   0.437500   0.812500   x 
            x  Ni         164         0.562500   0.312500   0.812500   x 
            x  Ni         165         0.812500   0.437500   0.937500   x 
            x  Ni         166         0.937500   0.312500   0.937500   x 
            x  Ni         167         0.937500   0.437500   0.812500   x 
            x  Ni         168         0.812500   0.312500   0.812500   x 
            x  Ni         169         0.062500   0.687500   0.937500   x 
            x  Ni         170         0.187500   0.562500   0.937500   x 
            x  Ni         171         0.187500   0.687500   0.812500   x 
            x  Ni         172         0.062500   0.562500   0.812500   x 
            x  Ni         173         0.312500   0.687500   0.937500   x 
            x  Ni         174         0.437500   0.562500   0.937500   x 
            x  Ni         175         0.562500   0.562500   0.812500   x 
            x  Ni         176         0.812500   0.687500   0.937500   x 
            x  Ni         177         0.937500   0.562500   0.937500   x 
            x  Ni         178         0.937500   0.687500   0.812500   x 
            x  Ni         179         0.812500   0.562500   0.812500   x 
            x  Ni         180         0.062500   0.937500   0.937500   x 
            x  Ni         181         0.187500   0.812500   0.937500   x 
            x  Ni         182         0.187500   0.937500   0.812500   x 
            x  Ni         183         0.062500   0.812500   0.812500   x 
            x  Ni         184         0.312500   0.937500   0.937500   x 
            x  Ni         185         0.437500   0.812500   0.937500   x 
            x  Ni         186         0.437500   0.937500   0.812500   x 
            x  Ni         187         0.312500   0.812500   0.812500   x 
            x  Ni         188         0.562500   0.937500   0.937500   x 
            x  Ni         189         0.687500   0.937500   0.812500   x 
            x  Ni         190         0.562500   0.812500   0.812500   x 
            x  Ni         191         0.812500   0.937500   0.937500   x 
            x  Ni         192         0.812500   0.812500   0.812500   x 
            xxxxxxxxxxxxxxxxxxxxxxxxxxxxxxxxxxxxxxxxxxxxxxxxxxxxxxxxxxxx
 
 
                         No user defined ionic velocities
 
                           -------------------------------
                                   Details of Species
                           -------------------------------
 
                               Mass of species in AMU
                                    Al   26.9815400
                                    Ni   58.6934000
 
                          Electric Quadrupole Moment (Barn)
                                    Al    0.1466000 Isotope 27
                                    Ni    0.1620000 Isotope 61
 
                          Files used for pseudopotentials:
                                    Al 3|2.2|2.2|1.4|4|5|5|30:31:32U2U2
                                    Ni 3|2.4|2.4|1.0|8|9|10|40:41:32U2U2(qc=5.5)
 
                           -------------------------------
                              k-Points For BZ Sampling
                           -------------------------------
                       MP grid size for SCF calculation is  1  1  1
                            with an offset of   0.000  0.000  0.000
                       Number of kpoints used =             1
 
                           -------------------------------
                               Symmetry and Constraints
                           -------------------------------
 
                      Maximum deviation from symmetry =  0.00000         ANG
 
                      Number of symmetry operations   =           1
                      Number of ionic constraints     =           3
                      Point group of crystal =     1: C1, 1, 1
                      Space group of crystal =     1: P1, P 1
 
             Set iprint > 1 for details on symmetry rotations/translations
 
                         Centre of mass is constrained
             Set iprint > 1 for details of linear ionic constraints
 
                         Number of cell constraints= 0
                         Cell constraints are:  1 2 3 4 5 6
 
                         External pressure/stress (GPa)
                          0.00000   0.00000   0.00000
                                    0.00000   0.00000
                                              0.00000
  
+---------------- MEMORY AND SCRATCH DISK ESTIMATES PER PROCESS --------------+
|                                                     Memory          Disk    |
| Baseline code, static data and system overhead      368.0 MB         0.0 MB |
| BLAS internal memory storage                          0.0 MB         0.0 MB |
| Model and support data                              266.1 MB        70.6 MB |
| Electronic energy minimisation requirements          62.6 MB         0.0 MB |
| Force calculation requirements                        1.5 MB         0.0 MB |
|                                               ----------------------------- |
| Approx. total storage required per process          696.7 MB        70.6 MB |
|                                                                             |
| Requirements will fluctuate during execution and may exceed these estimates |
+-----------------------------------------------------------------------------+
Calculating total energy with cut-off of  272.114 eV.
------------------------------------------------------------------------ <-- SCF
SCF loop      Energy           Fermi           Energy gain       Timer   <-- SCF
                               energy          per atom          (sec)   <-- SCF
------------------------------------------------------------------------ <-- SCF
Initial  -2.20592967E+005  0.00000000E+000                        40.69  <-- SCF
      1  -2.62473551E+005  6.87131829E+000   1.63596033E+002      83.67  <-- SCF
      2  -2.69474144E+005  3.69440324E+000   2.73460650E+001     123.79  <-- SCF
      3  -2.70200617E+005  3.59110334E+000   2.83778419E+000     165.25  <-- SCF
      4  -2.70218628E+005  3.64431529E+000   7.03555749E-002     181.31  <-- SCF
      5  -2.70543709E+005  6.67857453E+000   1.26984990E+000     202.96  <-- SCF
      6  -2.70329850E+005  5.60682242E+000  -8.35388197E-001     245.19  <-- SCF
      7  -2.71345149E+005  4.69101356E+000   3.96601293E+000     287.97  <-- SCF
      8  -2.71353808E+005  4.68792825E+000   3.38231748E-002     327.99  <-- SCF
      9  -2.71094732E+005  5.87631457E+000  -1.01201436E+000     348.17  <-- SCF
     10  -2.73844199E+005  8.08208977E+000   1.07401053E+001     393.93  <-- SCF
     11  -2.73905629E+005  7.88483105E+000   2.39959719E-001     411.83  <-- SCF
     12  -2.73391189E+005  6.71773469E+000  -2.00953336E+000     458.58  <-- SCF
     13  -2.79950978E+005  6.42034359E+000   2.56241762E+001     511.80  <-- SCF
     14  -2.80454832E+005  6.49300822E+000   1.96818031E+000     557.92  <-- SCF
     15  -2.80777422E+005  8.66757951E+000   1.26011791E+000     609.83  <-- SCF
     16  -2.81416316E+005  8.13629952E+000   2.49568036E+000     665.69  <-- SCF
     17  -2.81814451E+005  6.54602481E+000   1.55521489E+000     697.72  <-- SCF
     18  -2.83899122E+005  8.94919207E+000   8.14324676E+000     740.73  <-- SCF
     19  -2.83962726E+005  8.69329822E+000   2.48452907E-001     782.38  <-- SCF
     20  -2.83909331E+005  8.42825131E+000  -2.08577420E-001     808.60  <-- SCF
     21  -2.87409905E+005  8.51446437E+000   1.36741190E+001     833.64  <-- SCF
     22  -2.87437547E+005  8.45449980E+000   1.07978086E-001     856.15  <-- SCF
     23  -2.87899220E+005  8.51561554E+000   1.80340961E+000     878.47  <-- SCF
     24  -2.87489247E+005  8.56777304E+000  -1.60145678E+000     900.87  <-- SCF
     25  -2.87377164E+005  8.59181159E+000  -4.37827212E-001     924.06  <-- SCF
     26  -2.86873012E+005  8.62262729E+000  -1.96934059E+000     948.36  <-- SCF
     27  -2.85984423E+005  8.66092835E+000  -3.47105127E+000     970.49  <-- SCF
     28  -2.85986416E+005  8.65046998E+000   7.78469604E-003     993.91  <-- SCF
     29  -2.84131560E+005  8.56982449E+000  -7.24552982E+000    1040.23  <-- SCF
     30  -2.84144928E+005  8.52609240E+000   5.22151936E-002    1063.83  <-- SCF
------------------------------------------------------------------------ <-- SCF
 *Warning* max. SCF cycles performed but system has not reached the groundstate.
  
Current total energy, E     =  -284143.1729281     eV
Current free energy (E-TS)  =  -284144.9275321     eV
(energies not corrected for finite basis set)
 
NB est. 0K energy (E-0.5TS)      =  -284144.0502301     eV
 
  ****************************************************************************
  Warning: electronic minimisation did not converge when finding ground state.
  ****************************************************************************
  Writing checkpoint file...

Writing analysis data to castep.castep_bin

Writing model to castep.check
  
Overall parallel efficiency rating: Good (79%)                                  
 +-------------------------------------------------+
 |                                                 |
 |      CCC   AA    SSS  TTTTT  EEEEE  PPPP        |
 |     C     A  A  S       T    E      P   P       |
 |     C     AAAA   SS     T    EEE    PPPP        |
 |     C     A  A     S    T    E      P           |
 |      CCC  A  A  SSS     T    EEEEE  P           |
 |                                                 |
 +-------------------------------------------------+
 |                                                 |
 | Welcome to Academic Release CASTEP version 20.11|          
 | Ab Initio Total Energy Program                  |
 |                                                 |
 | Authors:                                        |
 | M. Segall, M. Probert, C. Pickard, P. Hasnip,   |
 | S. Clark, K. Refson, J. R. Yates, M. Payne      |
 |                                                 |
 | Contributors:                                   |
 | P. Lindan, P. Haynes, J. White, V. Milman,      |
 | N. Govind, M. Gibson, P. Tulip, V. Cocula,      |
 | B. Montanari, D. Quigley, M. Glover,            |
 | L. Bernasconi, A. Perlov, M. Plummer,           |
 | E. McNellis, J. Meyer, J. Gale, D. Jochym       |
 | J. Aarons, B. Walker, R. Gillen, D. Jones       |
 | T. Green, I. J. Bush, C. J. Armstrong,          |
 | E. J. Higgins, E. L. Brown, M. S. McFly,        |
 | J. Wilkins, B-C. Shih, P. J. P. Byrne,          |
 | R. J. Maurer, J. C. Womack, J. Dziedzic,        |
 | J. R. Kermode, A. Bartok-Partay                 |
 |                                                 |
 | Copyright (c) 2000 - 2020                       |
 |                                                 |
 |     Distributed under license from Cambridge    |
 |     Enterprise for academic use only.           |
 |                                                 |
 | Please cite                                     |
 |                                                 |
 |     "First principles methods using CASTEP"     |
 |                                                 |
 |         Zeitschrift fuer Kristallographie       |
 |           220(5-6) pp. 567-570 (2005)           |
 |                                                 |
 | S. J. Clark, M. D. Segall, C. J. Pickard,       |
 | P. J. Hasnip, M. J. Probert, K. Refson,         |
 | M. C. Payne                                     |
 |                                                 |
 |       in all publications arising from          |
 |              your use of CASTEP                 |
 |                                                 |
 +-------------------------------------------------+
 |                                                 |
 |              http://www.castep.org              |
 |                                                 |
 +-------------------------------------------------+
 
 
 
 Compiled for linux_x86_64_ifort on Wed, 25 Aug 2021 18:50:38 +0100
 from code version e772bf432+  HEAD  Sat Apr 3 17:41:32 2021 +0100
 Compiler: Intel Fortran 19.0.5.281; Optimisation: fast
 MATHLIBS: Intel MKL(2019.0.5) (LAPACK version 3.7.0)
 FFT Lib : mkl
 Fundamental constants values: CODATA 2014
 
 Run started: Tue, 04 Oct 2022 13:31:08 +0100
 
 Atomic calculation performed for Al: 1s2 2s2 2p6 3s2 3p1
 
 Converged in 52 iterations to an ae energy of -6606.982 eV
 
   ============================================================                
   | Pseudopotential Report - Date of generation  4-10-2022   |                
   ------------------------------------------------------------                
   | Element: Al Ionic charge:  3.00 Level of theory: RPBE    |                
   | Atomic Solver: Koelling-Harmon                           |                
   |                                                          |                
   |               Reference Electronic Structure             |                
   |         Orbital         Occupation         Energy        |                
   |            3s              2.000           -0.284        |                
   |            3p              1.000           -0.100        |                
   |                                                          |                
   |                 Pseudopotential Definition               |                
   |        Beta     l      e      Rc     scheme   norm       |                
   |          1      0   -0.284   2.192     qc      0         |                
   |          2      0    0.250   2.192     qc      0         |                
   |          3      1   -0.100   2.192     qc      0         |                
   |          4      1    0.250   2.192     qc      0         |                
   |          5      2    0.000   2.000     qc      0         |                
   |          6      2    0.250   2.000     qc      0         |                
   |         loc     3    0.000   2.192     pn      0         |                
   |                                                          |                
   | Augmentation charge Rinner = 1.398                       |                
   | Partial core correction Rc = 1.398                       |                
   ------------------------------------------------------------                
   | "3|2.2|2.2|1.4|4|5|5|30:31:32U2U2"                       |                
   ------------------------------------------------------------                
   |      Author: Chris J. Pickard, Cambridge University      |                
   ============================================================                
 
 Atomic calculation performed for Ni: 1s2 2s2 2p6 3s2 3p6 3d8 4s2
 
 Converged in 109 iterations to an ae energy of -41381.414 eV
 
   ============================================================                
   | Pseudopotential Report - Date of generation  4-10-2022   |                
   ------------------------------------------------------------                
   | Element: Ni Ionic charge: 10.00 Level of theory: RPBE    |                
   | Atomic Solver: Koelling-Harmon                           |                
   |                                                          |                
   |               Reference Electronic Structure             |                
   |         Orbital         Occupation         Energy        |                
   |            3d              8.000           -0.324        |                
   |            4s              2.000           -0.204        |                
   |                                                          |                
   |                 Pseudopotential Definition               |                
   |        Beta     l      e      Rc     scheme   norm       |                
   |          1      0   -0.204   2.401     qc      0         |                
   |          2      0    0.250   2.401     qc      0         |                
   |          3      1    0.000   2.401     qc      0         |                
   |          4      1    0.250   2.401     qc      0         |                
   |          5      2   -0.324   1.999     qc      0         |                
   |          6      2    0.250   1.999     qc      0         |                
   |         loc     3    0.000   2.401     pn      0         |                
   |                                                          |                
   | Augmentation charge Rinner = 1.001                       |                
   | Partial core correction Rc = 1.001                       |                
   ------------------------------------------------------------                
   | "3|2.4|2.4|1.0|8|9|10|40:41:32U2U2(qc=5.5)"              |                
   ------------------------------------------------------------                
   |      Author: Chris J. Pickard, Cambridge University      |                
   ============================================================                
 
 Pseudo atomic calculation performed for Al 3s2 3p1
 
 Converged in 13 iterations to a total energy of -107.6593 eV
 
 Pseudo atomic calculation performed for Ni 3d8 4s2
 
 Converged in 41 iterations to a total energy of -1369.7890 eV
 Calculation parallelised over 28 processes.
 Data is distributed by G-vector(28-way)

 ************************************ Title ************************************
 

 ***************************** General Parameters ******************************
  
 output verbosity                               : normal  (1)
 write checkpoint data to                       : castep.check
 type of calculation                            : geometry optimization
 stress calculation                             : off
 density difference calculation                 : off
 electron localisation func (ELF) calculation   : off
 Hirshfeld analysis                             : off
 molecular orbital projected DOS                : off
 deltaSCF calculation                           : off
 unlimited duration calculation
 timing information                             : on
 memory usage estimate                          : on
 write extra output files                       : on
 write final potential to formatted file        : off
 write final density to formatted file          : off
 write BibTeX reference list                    : on
 write OTFG pseudopotential files               : on
 write electrostatic potential file             : on
 write bands file                               : on
 checkpoint writing                             : both castep_bin and check files
  
 output         length unit                     : A
 output           mass unit                     : amu
 output           time unit                     : ps
 output         charge unit                     : e
 output           spin unit                     : hbar/2
 output         energy unit                     : eV
 output          force unit                     : eV/A
 output       velocity unit                     : A/ps
 output       pressure unit                     : GPa
 output     inv_length unit                     : 1/A
 output      frequency unit                     : cm-1
 output force constant unit                     : eV/A**2
 output         volume unit                     : A**3
 output   IR intensity unit                     : (D/A)**2/amu
 output         dipole unit                     : D
 output         efield unit                     : eV/A/e
 output        entropy unit                     : J/mol/K
 output    efield chi2 unit                     : pm/V
  
 wavefunctions paging                           : none
 random number generator seed                   : randomised (133109125)
 data distribution                              : optimal for this architecture
 optimization strategy                          : maximize speed(+++)

 *********************** Exchange-Correlation Parameters ***********************
  
 using functional                               : revised Perdew Burke Ernzerhof
 relativistic treatment                         : Koelling-Harmon
 DFT+D: Semi-empirical dispersion correction    : off

 ************************* Pseudopotential Parameters **************************
  
 pseudopotential representation                 : reciprocal space
 <beta|phi> representation                      : reciprocal space
 spin-orbit coupling                            : off

 **************************** Basis Set Parameters *****************************
  
 plane wave basis set cut-off                   :   900.0000   eV
 size of standard grid                          :     1.7500
 size of   fine   gmax                          :    26.8966   1/A
 finite basis set correction                    : automatic
 number of sample energies                      :          3
           sample  spacing                      :     5.0000   eV

 **************************** Electronic Parameters ****************************
  
 number of  electrons                           :  2112.    
 net charge of system                           :  0.000    
 treating system as non-spin-polarized
 number of bands                                :       1168

 ********************* Electronic Minimization Parameters **********************
  
 Method: Treating system as metallic with density mixing treatment of electrons,
         and number of  SD  steps               :          1
         and number of  CG  steps               :          4
  
 total energy / atom convergence tol.           : 0.1000E-05   eV
 eigen-energy convergence tolerance             : 0.2192E-06   eV
 max force / atom convergence tol.              : ignored
 convergence tolerance window                   :          3   cycles
 max. number of SCF cycles                      :        360
 number of fixed-spin iterations                :         10
 smearing scheme                                : Gaussian
 smearing width                                 : 0.2000       eV
 Fermi energy convergence tolerance             : 0.2721E-13   eV
 periodic dipole correction                     : NONE

 ************************** Density Mixing Parameters **************************
  
 density-mixing scheme                          : Pulay
 max. length of mixing history                  :         20
 charge density mixing amplitude                : 0.8000    
 cut-off energy for mixing                      :  900.0       eV

 *********************** Population Analysis Parameters ************************
  
 Population analysis with cutoff                :  3.000       A
 Population analysis output                     : summary and pdos components

 ********************** Geometry Optimization Parameters ***********************
  
 optimization method                            : LBFGS
 max. no. of LBFGS updates                      : unbounded
 preconditioned LBFGS is activated
 preconditioner type                            : EXP
     stabilization constant                     :     0.1000
     parameter A                                :     3.0000
     nearest neighbor distance                  : automatic
     cut-off distance                           : automatic
     parameter mu                               : automatic
 variable cell method                           : fixed basis quality
 max. number of steps                           :         30
 estimated bulk modulus                         :  500.0       GPa
 estimated <frequency>                          :  1668.       cm-1
 geom line minimiser                            : on
 with line minimiser tolerance                  :     0.4000
 total energy convergence tolerance             : 0.2000E-04   eV/atom
        max ionic |force| tolerance             : 0.5000E-01   eV/A
 max ionic |displacement| tolerance             : 0.1000E-02   A
   max |stress component| tolerance             : 0.1000       GPa
 convergence tolerance window                   :          2   steps
 backup results every                           :          5   steps
 write geom trajectory file                     : on

 *******************************************************************************
  
 
                           -------------------------------
                                      Unit Cell
                           -------------------------------
        Real Lattice(A)                      Reciprocal Lattice(1/A)
    14.3912000     0.0000000     0.0000000        0.436599124   0.000000000   0.000000000
     0.0000000    14.3912000     0.0000000        0.000000000   0.436599124   0.000000000
     0.0000000     0.0000000    14.3912000        0.000000000   0.000000000   0.436599124
 
                       Lattice parameters(A)       Cell Angles
                    a =     14.391200          alpha =   90.000000
                    b =     14.391200          beta  =   90.000000
                    c =     14.391200          gamma =   90.000000
 
                       Current cell volume =          2980.513041       A**3
                                   density =             4.360307   AMU/A**3
                                           =             7.240460     g/cm^3
 
                           -------------------------------
                                     Cell Contents
                           -------------------------------
                         Total number of ions in cell =  256
                      Total number of species in cell =    2
                        Max number of any one species =  192
 
            xxxxxxxxxxxxxxxxxxxxxxxxxxxxxxxxxxxxxxxxxxxxxxxxxxxxxxxxxxxx
            x  Element    Atom        Fractional coordinates of atoms  x
            x            Number           u          v          w      x
            x----------------------------------------------------------x
            x  Al           1         0.937500   0.937500   0.812500   x 
            x  Al           2         0.937500   0.812500   0.937500   x 
            x  Al           3         0.687500   0.812500   0.937500   x 
            x  Al           4         0.687500   0.687500   0.812500   x 
            x  Al           5         0.687500   0.562500   0.937500   x 
            x  Al           6         0.562500   0.687500   0.937500   x 
            x  Al           7         0.312500   0.562500   0.812500   x 
            x  Al           8         0.437500   0.687500   0.812500   x 
            x  Al           9         0.312500   0.437500   0.937500   x 
            x  Al          10         0.187500   0.312500   0.937500   x 
            x  Al          11         0.812500   0.062500   0.812500   x 
            x  Al          12         0.812500   0.187500   0.937500   x 
            x  Al          13         0.687500   0.187500   0.812500   x 
            x  Al          14         0.312500   0.062500   0.812500   x 
            x  Al          15         0.312500   0.187500   0.937500   x 
            x  Al          16         0.062500   0.062500   0.812500   x 
            x  Al          17         0.187500   0.187500   0.812500   x 
            x  Al          18         0.187500   0.062500   0.937500   x 
            x  Al          19         0.812500   0.812500   0.562500   x 
            x  Al          20         0.562500   0.812500   0.562500   x 
            x  Al          21         0.437500   0.812500   0.687500   x 
            x  Al          22         0.312500   0.937500   0.687500   x 
            x  Al          23         0.812500   0.687500   0.687500   x 
            x  Al          24         0.437500   0.562500   0.687500   x 
            x  Al          25         0.187500   0.687500   0.562500   x 
            x  Al          26         0.687500   0.437500   0.562500   x 
            x  Al          27         0.562500   0.437500   0.687500   x 
            x  Al          28         0.062500   0.312500   0.562500   x 
            x  Al          29         0.187500   0.187500   0.562500   x 
            x  Al          30         0.687500   0.812500   0.437500   x 
            x  Al          31         0.562500   0.937500   0.437500   x 
            x  Al          32         0.312500   0.937500   0.437500   x 
            x  Al          33         0.062500   0.812500   0.312500   x 
            x  Al          34         0.187500   0.812500   0.437500   x 
            x  Al          35         0.062500   0.937500   0.437500   x 
            x  Al          36         0.937500   0.687500   0.312500   x 
            x  Al          37         0.937500   0.562500   0.437500   x 
            x  Al          38         0.812500   0.687500   0.437500   x 
            x  Al          39         0.687500   0.562500   0.437500   x 
            x  Al          40         0.062500   0.562500   0.312500   x 
            x  Al          41         0.187500   0.687500   0.312500   x 
            x  Al          42         0.187500   0.562500   0.437500   x 
            x  Al          43         0.312500   0.437500   0.437500   x 
            x  Al          44         0.187500   0.312500   0.437500   x 
            x  Al          45         0.687500   0.187500   0.312500   x 
            x  Al          46         0.687500   0.062500   0.437500   x 
            x  Al          47         0.437500   0.062500   0.437500   x 
            x  Al          48         0.062500   0.187500   0.437500   x 
            x  Al          49         0.562500   0.812500   0.062500   x 
            x  Al          50         0.062500   0.812500   0.062500   x 
            x  Al          51         0.812500   0.562500   0.062500   x 
            x  Al          52         0.937500   0.562500   0.187500   x 
            x  Al          53         0.312500   0.562500   0.062500   x 
            x  Al          54         0.312500   0.687500   0.187500   x 
            x  Al          55         0.062500   0.687500   0.187500   x 
            x  Al          56         0.937500   0.437500   0.062500   x 
            x  Al          57         0.812500   0.437500   0.187500   x 
            x  Al          58         0.687500   0.437500   0.062500   x 
            x  Al          59         0.312500   0.312500   0.062500   x 
            x  Al          60         0.437500   0.437500   0.062500   x 
            x  Al          61         0.062500   0.312500   0.062500   x 
            x  Al          62         0.687500   0.187500   0.062500   x 
            x  Al          63         0.312500   0.187500   0.187500   x 
            x  Al          64         0.187500   0.062500   0.187500   x 
            x  Ni           1         0.062500   0.187500   0.187500   x 
            x  Ni           2         0.187500   0.187500   0.062500   x 
            x  Ni           3         0.062500   0.062500   0.062500   x 
            x  Ni           4         0.437500   0.062500   0.187500   x 
            x  Ni           5         0.437500   0.187500   0.062500   x 
            x  Ni           6         0.312500   0.062500   0.062500   x 
            x  Ni           7         0.562500   0.187500   0.187500   x 
            x  Ni           8         0.687500   0.062500   0.187500   x 
            x  Ni           9         0.562500   0.062500   0.062500   x 
            x  Ni          10         0.812500   0.187500   0.187500   x 
            x  Ni          11         0.937500   0.062500   0.187500   x 
            x  Ni          12         0.937500   0.187500   0.062500   x 
            x  Ni          13         0.812500   0.062500   0.062500   x 
            x  Ni          14         0.062500   0.437500   0.187500   x 
            x  Ni          15         0.187500   0.312500   0.187500   x 
            x  Ni          16         0.187500   0.437500   0.062500   x 
            x  Ni          17         0.312500   0.437500   0.187500   x 
            x  Ni          18         0.437500   0.312500   0.187500   x 
            x  Ni          19         0.562500   0.437500   0.187500   x 
            x  Ni          20         0.687500   0.312500   0.187500   x 
            x  Ni          21         0.562500   0.312500   0.062500   x 
            x  Ni          22         0.937500   0.312500   0.187500   x 
            x  Ni          23         0.812500   0.312500   0.062500   x 
            x  Ni          24         0.187500   0.562500   0.187500   x 
            x  Ni          25         0.187500   0.687500   0.062500   x 
            x  Ni          26         0.062500   0.562500   0.062500   x 
            x  Ni          27         0.437500   0.562500   0.187500   x 
            x  Ni          28         0.437500   0.687500   0.062500   x 
            x  Ni          29         0.562500   0.687500   0.187500   x 
            x  Ni          30         0.687500   0.562500   0.187500   x 
            x  Ni          31         0.687500   0.687500   0.062500   x 
            x  Ni          32         0.562500   0.562500   0.062500   x 
            x  Ni          33         0.812500   0.687500   0.187500   x 
            x  Ni          34         0.937500   0.687500   0.062500   x 
            x  Ni          35         0.062500   0.937500   0.187500   x 
            x  Ni          36         0.187500   0.812500   0.187500   x 
            x  Ni          37         0.187500   0.937500   0.062500   x 
            x  Ni          38         0.312500   0.937500   0.187500   x 
            x  Ni          39         0.437500   0.812500   0.187500   x 
            x  Ni          40         0.437500   0.937500   0.062500   x 
            x  Ni          41         0.312500   0.812500   0.062500   x 
            x  Ni          42         0.562500   0.937500   0.187500   x 
            x  Ni          43         0.687500   0.812500   0.187500   x 
            x  Ni          44         0.687500   0.937500   0.062500   x 
            x  Ni          45         0.812500   0.937500   0.187500   x 
            x  Ni          46         0.937500   0.812500   0.187500   x 
            x  Ni          47         0.937500   0.937500   0.062500   x 
            x  Ni          48         0.812500   0.812500   0.062500   x 
            x  Ni          49         0.187500   0.062500   0.437500   x 
            x  Ni          50         0.187500   0.187500   0.312500   x 
            x  Ni          51         0.062500   0.062500   0.312500   x 
            x  Ni          52         0.312500   0.187500   0.437500   x 
            x  Ni          53         0.437500   0.187500   0.312500   x 
            x  Ni          54         0.312500   0.062500   0.312500   x 
            x  Ni          55         0.562500   0.187500   0.437500   x 
            x  Ni          56         0.562500   0.062500   0.312500   x 
            x  Ni          57         0.812500   0.187500   0.437500   x 
            x  Ni          58         0.937500   0.062500   0.437500   x 
            x  Ni          59         0.937500   0.187500   0.312500   x 
            x  Ni          60         0.812500   0.062500   0.312500   x 
            x  Ni          61         0.062500   0.437500   0.437500   x 
            x  Ni          62         0.187500   0.437500   0.312500   x 
            x  Ni          63         0.062500   0.312500   0.312500   x 
            x  Ni          64         0.437500   0.312500   0.437500   x 
            x  Ni          65         0.437500   0.437500   0.312500   x 
            x  Ni          66         0.312500   0.312500   0.312500   x 
            x  Ni          67         0.562500   0.437500   0.437500   x 
            x  Ni          68         0.687500   0.312500   0.437500   x 
            x  Ni          69         0.687500   0.437500   0.312500   x 
            x  Ni          70         0.562500   0.312500   0.312500   x 
            x  Ni          71         0.812500   0.437500   0.437500   x 
            x  Ni          72         0.937500   0.312500   0.437500   x 
            x  Ni          73         0.937500   0.437500   0.312500   x 
            x  Ni          74         0.812500   0.312500   0.312500   x 
            x  Ni          75         0.062500   0.687500   0.437500   x 
            x  Ni          76         0.312500   0.687500   0.437500   x 
            x  Ni          77         0.437500   0.562500   0.437500   x 
            x  Ni          78         0.437500   0.687500   0.312500   x 
            x  Ni          79         0.312500   0.562500   0.312500   x 
            x  Ni          80         0.562500   0.687500   0.437500   x 
            x  Ni          81         0.687500   0.687500   0.312500   x 
            x  Ni          82         0.562500   0.562500   0.312500   x 
            x  Ni          83         0.812500   0.562500   0.312500   x 
            x  Ni          84         0.187500   0.937500   0.312500   x 
            x  Ni          85         0.437500   0.812500   0.437500   x 
            x  Ni          86         0.437500   0.937500   0.312500   x 
            x  Ni          87         0.312500   0.812500   0.312500   x 
            x  Ni          88         0.687500   0.937500   0.312500   x 
            x  Ni          89         0.562500   0.812500   0.312500   x 
            x  Ni          90         0.812500   0.937500   0.437500   x 
            x  Ni          91         0.937500   0.812500   0.437500   x 
            x  Ni          92         0.937500   0.937500   0.312500   x 
            x  Ni          93         0.812500   0.812500   0.312500   x 
            x  Ni          94         0.062500   0.187500   0.687500   x 
            x  Ni          95         0.187500   0.062500   0.687500   x 
            x  Ni          96         0.062500   0.062500   0.562500   x 
            x  Ni          97         0.312500   0.187500   0.687500   x 
            x  Ni          98         0.437500   0.062500   0.687500   x 
            x  Ni          99         0.437500   0.187500   0.562500   x 
            x  Ni         100         0.312500   0.062500   0.562500   x 
            x  Ni         101         0.562500   0.187500   0.687500   x 
            x  Ni         102         0.687500   0.062500   0.687500   x 
            x  Ni         103         0.687500   0.187500   0.562500   x 
            x  Ni         104         0.562500   0.062500   0.562500   x 
            x  Ni         105         0.812500   0.187500   0.687500   x 
            x  Ni         106         0.937500   0.062500   0.687500   x 
            x  Ni         107         0.937500   0.187500   0.562500   x 
            x  Ni         108         0.812500   0.062500   0.562500   x 
            x  Ni         109         0.062500   0.437500   0.687500   x 
            x  Ni         110         0.187500   0.312500   0.687500   x 
            x  Ni         111         0.187500   0.437500   0.562500   x 
            x  Ni         112         0.312500   0.437500   0.687500   x 
            x  Ni         113         0.437500   0.312500   0.687500   x 
            x  Ni         114         0.437500   0.437500   0.562500   x 
            x  Ni         115         0.312500   0.312500   0.562500   x 
            x  Ni         116         0.687500   0.312500   0.687500   x 
            x  Ni         117         0.562500   0.312500   0.562500   x 
            x  Ni         118         0.812500   0.437500   0.687500   x 
            x  Ni         119         0.937500   0.312500   0.687500   x 
            x  Ni         120         0.937500   0.437500   0.562500   x 
            x  Ni         121         0.812500   0.312500   0.562500   x 
            x  Ni         122         0.062500   0.687500   0.687500   x 
            x  Ni         123         0.187500   0.562500   0.687500   x 
            x  Ni         124         0.062500   0.562500   0.562500   x 
            x  Ni         125         0.312500   0.687500   0.687500   x 
            x  Ni         126         0.437500   0.687500   0.562500   x 
            x  Ni         127         0.312500   0.562500   0.562500   x 
            x  Ni         128         0.562500   0.687500   0.687500   x 
            x  Ni         129         0.687500   0.562500   0.687500   x 
            x  Ni         130         0.687500   0.687500   0.562500   x 
            x  Ni         131         0.562500   0.562500   0.562500   x 
            x  Ni         132         0.937500   0.562500   0.687500   x 
            x  Ni         133         0.937500   0.687500   0.562500   x 
            x  Ni         134         0.812500   0.562500   0.562500   x 
            x  Ni         135         0.062500   0.937500   0.687500   x 
            x  Ni         136         0.187500   0.812500   0.687500   x 
            x  Ni         137         0.187500   0.937500   0.562500   x 
            x  Ni         138         0.062500   0.812500   0.562500   x 
            x  Ni         139         0.437500   0.937500   0.562500   x 
            x  Ni         140         0.312500   0.812500   0.562500   x 
            x  Ni         141         0.562500   0.937500   0.687500   x 
            x  Ni         142         0.687500   0.812500   0.687500   x 
            x  Ni         143         0.687500   0.937500   0.562500   x 
            x  Ni         144         0.812500   0.937500   0.687500   x 
            x  Ni         145         0.937500   0.812500   0.687500   x 
            x  Ni         146         0.937500   0.937500   0.562500   x 
            x  Ni         147         0.062500   0.187500   0.937500   x 
            x  Ni         148         0.437500   0.062500   0.937500   x 
            x  Ni         149         0.437500   0.187500   0.812500   x 
            x  Ni         150         0.562500   0.187500   0.937500   x 
            x  Ni         151         0.687500   0.062500   0.937500   x 
            x  Ni         152         0.562500   0.062500   0.812500   x 
            x  Ni         153         0.937500   0.062500   0.937500   x 
            x  Ni         154         0.937500   0.187500   0.812500   x 
            x  Ni         155         0.062500   0.437500   0.937500   x 
            x  Ni         156         0.187500   0.437500   0.812500   x 
            x  Ni         157         0.062500   0.312500   0.812500   x 
            x  Ni         158         0.437500   0.312500   0.937500   x 
            x  Ni         159         0.437500   0.437500   0.812500   x 
            x  Ni         160         0.312500   0.312500   0.812500   x 
            x  Ni         161         0.562500   0.437500   0.937500   x 
            x  Ni         162         0.687500   0.312500   0.937500   x 
            x  Ni         163         0.687500   0.437500   0.812500   x 
            x  Ni         164         0.562500   0.312500   0.812500   x 
            x  Ni         165         0.812500   0.437500   0.937500   x 
            x  Ni         166         0.937500   0.312500   0.937500   x 
            x  Ni         167         0.937500   0.437500   0.812500   x 
            x  Ni         168         0.812500   0.312500   0.812500   x 
            x  Ni         169         0.062500   0.687500   0.937500   x 
            x  Ni         170         0.187500   0.562500   0.937500   x 
            x  Ni         171         0.187500   0.687500   0.812500   x 
            x  Ni         172         0.062500   0.562500   0.812500   x 
            x  Ni         173         0.312500   0.687500   0.937500   x 
            x  Ni         174         0.437500   0.562500   0.937500   x 
            x  Ni         175         0.562500   0.562500   0.812500   x 
            x  Ni         176         0.812500   0.687500   0.937500   x 
            x  Ni         177         0.937500   0.562500   0.937500   x 
            x  Ni         178         0.937500   0.687500   0.812500   x 
            x  Ni         179         0.812500   0.562500   0.812500   x 
            x  Ni         180         0.062500   0.937500   0.937500   x 
            x  Ni         181         0.187500   0.812500   0.937500   x 
            x  Ni         182         0.187500   0.937500   0.812500   x 
            x  Ni         183         0.062500   0.812500   0.812500   x 
            x  Ni         184         0.312500   0.937500   0.937500   x 
            x  Ni         185         0.437500   0.812500   0.937500   x 
            x  Ni         186         0.437500   0.937500   0.812500   x 
            x  Ni         187         0.312500   0.812500   0.812500   x 
            x  Ni         188         0.562500   0.937500   0.937500   x 
            x  Ni         189         0.687500   0.937500   0.812500   x 
            x  Ni         190         0.562500   0.812500   0.812500   x 
            x  Ni         191         0.812500   0.937500   0.937500   x 
            x  Ni         192         0.812500   0.812500   0.812500   x 
            xxxxxxxxxxxxxxxxxxxxxxxxxxxxxxxxxxxxxxxxxxxxxxxxxxxxxxxxxxxx
 
 
                         No user defined ionic velocities
 
                           -------------------------------
                                   Details of Species
                           -------------------------------
 
                               Mass of species in AMU
                                    Al   26.9815400
                                    Ni   58.6934000
 
                          Electric Quadrupole Moment (Barn)
                                    Al    0.1466000 Isotope 27
                                    Ni    0.1620000 Isotope 61
 
                          Files used for pseudopotentials:
                                    Al 3|2.2|2.2|1.4|4|5|5|30:31:32U2U2
                                    Ni 3|2.4|2.4|1.0|8|9|10|40:41:32U2U2(qc=5.5)
 
                           -------------------------------
                              k-Points For BZ Sampling
                           -------------------------------
                       MP grid size for SCF calculation is  1  1  1
                            with an offset of   0.000  0.000  0.000
                       Number of kpoints used =             1
 
                           -------------------------------
                               Symmetry and Constraints
                           -------------------------------
 
                      Maximum deviation from symmetry =  0.00000         ANG
 
                      Number of symmetry operations   =           1
                      Number of ionic constraints     =           3
                      Point group of crystal =     1: C1, 1, 1
                      Space group of crystal =     1: P1, P 1
 
             Set iprint > 1 for details on symmetry rotations/translations
 
                         Centre of mass is constrained
             Set iprint > 1 for details of linear ionic constraints
 
                         Number of cell constraints= 0
                         Cell constraints are:  1 2 3 4 5 6
 
                         External pressure/stress (GPa)
                          0.00000   0.00000   0.00000
                                    0.00000   0.00000
                                              0.00000
  
+---------------- MEMORY AND SCRATCH DISK ESTIMATES PER PROCESS --------------+
|                                                     Memory          Disk    |
| Baseline code, static data and system overhead      368.0 MB         0.0 MB |
| BLAS internal memory storage                          0.0 MB         0.0 MB |
| Model and support data                             1074.2 MB         0.0 MB |
| Electronic energy minimisation requirements         259.3 MB         0.0 MB |
| Force calculation requirements                        9.2 MB         0.0 MB |
|                                               ----------------------------- |
| Approx. total storage required per process         1701.5 MB         0.0 MB |
|                                                                             |
| Requirements will fluctuate during execution and may exceed these estimates |
+-----------------------------------------------------------------------------+
Calculating finite basis set correction with  3 cut-off energies.
Calculating total energy with cut-off of  890.000 eV.
------------------------------------------------------------------------ <-- SCF
SCF loop      Energy           Fermi           Energy gain       Timer   <-- SCF
                               energy          per atom          (sec)   <-- SCF
------------------------------------------------------------------------ <-- SCF
Initial  -2.19725597E+005  0.00000000E+000                        45.45  <-- SCF
      1  -2.63819394E+005  7.32690986E+000   1.72241396E+002     144.25  <-- SCF
      2  -2.70716543E+005  3.94667829E+000   2.69419875E+001     229.58  <-- SCF
      3  -2.71439172E+005  3.87895091E+000   2.82276959E+000     321.63  <-- SCF
      4  -2.71500020E+005  3.99933372E+000   2.37687933E-001     402.67  <-- SCF
      5  -2.71790190E+005  6.70960737E+000   1.13347778E+000     509.86  <-- SCF
      6  -2.71582958E+005  5.75773424E+000  -8.09503157E-001     628.79  <-- SCF
      7  -2.71494680E+005  4.84696517E+000  -3.44832625E-001     739.64  <-- SCF
      8  -2.71474347E+005  4.62485166E+000  -7.94275830E-002     850.83  <-- SCF
      9  -2.71471637E+005  4.62269403E+000  -1.05850555E-002     953.97  <-- SCF
     10  -2.71488107E+005  4.74055477E+000   6.43346270E-002    1059.16  <-- SCF
     11  -2.71473475E+005  4.61767868E+000  -5.71541761E-002    1168.57  <-- SCF
     12  -2.71469299E+005  4.58261569E+000  -1.63134558E-002    1271.37  <-- SCF
     13  -2.71469190E+005  4.58688416E+000  -4.26427702E-004    1376.36  <-- SCF
     14  -2.71469265E+005  4.59106909E+000   2.92455894E-004    1480.13  <-- SCF
[...]
             Al 20 -- Ni 141                 0.13        2.60635
             Al 49 -- Ni 185                 0.18        2.60637
            Ni 27  -- Ni 32                  0.06        2.60641
            Ni 170 -- Ni 171                 0.03        2.60676
            Ni 3   -- Ni 180                 0.06        2.60679
            Ni 1   -- Ni 15                  0.06        2.60688
             Al 30 -- Al 38                  0.25        2.60728
            Ni 129 -- Ni 175                 0.08        2.60737
            Ni 76  -- Ni 77                  0.11        2.60751
            Ni 125 -- Ni 140                 0.08        2.60760
             Al 21 -- Ni 126                 0.12        2.60771
            Ni 159 -- Ni 160                 0.07        2.60782
            Ni 69  -- Ni 74                  0.04        2.60798
            Ni 128 -- Ni 190                -0.02        2.60809
             Al 10 -- Al 61                  0.25        2.60813
            Ni 122 -- Ni 138                 0.07        2.60825
            Ni 97  -- Ni 115                 0.10        2.60843
             Al 51 -- Ni 165                 0.20        2.60875
            Ni 81  -- Ni 89                  0.04        2.60898
            Ni 29  -- Ni 39                  0.05        2.60915
            Ni 155 -- Ni 177                 0.08        2.60936
             Al 24 -- Ni 159                 0.18        2.60962
            Ni 24  -- Ni 25                  0.01        2.60963
             Al 63 -- Ni 15                  0.18        2.60978
            Ni 15  -- Ni 16                  0.02        2.60988
             Al 27 -- Ni 175                 0.17        2.61034
            Ni 139 -- Ni 140                 0.03        2.61053
            Ni 50  -- Ni 51                  0.03        2.61069
            Ni 5   -- Ni 148                 0.05        2.61082
             Al 13 -- Ni 168                 0.17        2.61150
            Ni 150 -- Ni 158                 0.09        2.61176
            Ni 80  -- Ni 131                 0.08        2.61199
            Ni 52  -- Ni 100                 0.06        2.61200
             Al 6  -- Ni 175                 0.21        2.61209
             Al 59 -- Al 63                  0.24        2.61243
             Al 17 -- Ni 147                 0.21        2.61273
            Ni 19  -- Ni 32                  0.02        2.61288
            Ni 75  -- Ni 133                 0.13        2.61331
            Ni 44  -- Ni 191                 0.09        2.61370
             Al 38 -- Ni 81                  0.12        2.61376
            Ni 189 -- Ni 191                 0.01        2.61390
             Al 40 -- Ni 75                  0.21        2.61394
             Al 21 -- Al 22                  0.25        2.61426
            Ni 60  -- Ni 90                  0.08        2.61485
            Ni 180 -- Ni 181                 0.04        2.61515
            Ni 101 -- Ni 152                 0.05        2.61541
            Ni 182 -- Ni 183                 0.09        2.61543
            Ni 31  -- Ni 33                  0.11        2.61579
             Al 23 -- Ni 192                 0.17        2.61605
             Al 44 -- Ni 115                 0.16        2.61624
            Ni 16  -- Ni 17                  0.05        2.61648
             Al 56 -- Ni 14                  0.15        2.61690
             Al 10 -- Al 17                  0.25        2.61699
            Ni 12  -- Ni 166                -0.00        2.61703
            Ni 55  -- Ni 99                  0.07        2.61715
             Al 5  -- Al 51                  0.24        2.61718
            Ni 12  -- Ni 23                  0.09        2.61762
             Al 4  -- Ni 179                 0.12        2.61855
             Al 39 -- Ni 134                 0.16        2.61856
            Ni 19  -- Ni 27                  0.08        2.61883
            Ni 94  -- Ni 110                -0.08        2.61918
             Al 46 -- Ni 56                  0.15        2.62017
             Al 22 -- Ni 182                 0.15        2.62027
             Al 32 -- Ni 49                  0.17        2.62045
             Al 25 -- Ni 76                  0.15        2.62057
            Ni 110 -- Ni 160                 0.06        2.62069
             Al 50 -- Ni 25                  0.15        2.62138
            Ni 75  -- Ni 91                  0.07        2.62153
            Ni 28  -- Ni 174                 0.05        2.62170
            Ni 120 -- Ni 124                 0.06        2.62185
            Ni 49  -- Ni 51                  0.01        2.62186
             Al 57 -- Ni 83                  0.17        2.62269
            Ni 24  -- Ni 26                  0.05        2.62319
            Ni 45  -- Ni 46                  0.11        2.62339
             Al 23 -- Ni 129                 0.18        2.62349
            Ni 100 -- Ni 137                 0.01        2.62381
             Al 40 -- Al 42                  0.22        2.62409
            Ni 46  -- Ni 92                  0.04        2.62431
             Al 2  -- Ni 47                  0.16        2.62512
            Ni 5   -- Ni 158                -0.01        2.62528
            Ni 185 -- Ni 187                 0.07        2.62575
             Al 32 -- Al 34                  0.23        2.62601
             Al 61 -- Ni 166                 0.17        2.62606
            Ni 123 -- Ni 171                 0.05        2.62649
            Ni 40  -- Ni 42                  0.05        2.62653
            Ni 151 -- Ni 188                 0.09        2.62662
            Ni 67  -- Ni 82                  0.03        2.62676
            Ni 28  -- Ni 39                  0.02        2.62682
             Al 33 -- Al 36                  0.23        2.62711
             Al 40 -- Al 52                  0.28        2.62744
             Al 64 -- Ni 54                  0.20        2.62778
            Ni 132 -- Ni 133                 0.05        2.62840
             Al 2  -- Ni 183                 0.16        2.62855
            Ni 109 -- Ni 119                 0.04        2.62939
             Al 4  -- Al 23                  0.25        2.62945
            Ni 2   -- Ni 147                 0.02        2.62973
             Al 49 -- Ni 28                  0.16        2.62979
            Ni 95  -- Ni 97                 -0.07        2.63019
             Al 21 -- Ni 190                 0.15        2.63086
            Ni 9   -- Ni 151                 0.08        2.63115
            Ni 130 -- Ni 131                 0.06        2.63181
             Al 9  -- Al 10                  0.22        2.63185
            Ni 20  -- Ni 74                 -0.00        2.63187
            Ni 109 -- Ni 111                 0.07        2.63200
            Ni 136 -- Ni 140                 0.01        2.63231
            Ni 28  -- Ni 32                  0.06        2.63272
             Al 42 -- Ni 79                  0.13        2.63273
            Ni 15  -- Ni 17                  0.05        2.63333
            Ni 76  -- Ni 78                  0.11        2.63335
             Al 38 -- Ni 93                  0.14        2.63350
             Al 56 -- Ni 22                  0.15        2.63382
             Al 60 -- Ni 17                  0.15        2.63401
             Al 1  -- Al 16                  0.24        2.63411
            Ni 36  -- Ni 41                  0.04        2.63489
            Ni 35  -- Ni 36                  0.04        2.63547
            Ni 125 -- Ni 127                 0.05        2.63649
            Ni 44  -- Ni 151                 0.11        2.63667
            Ni 128 -- Ni 142                 0.02        2.63743
            Ni 114 -- Ni 127                 0.04        2.63789
            Ni 132 -- Ni 134                 0.06        2.63840
            Ni 128 -- Ni 129                 0.08        2.63847
             Al 12 -- Ni 151                 0.16        2.63870
             Al 30 -- Al 31                  0.24        2.63959
             Al 61 -- Ni 147                 0.16        2.63984
            Ni 51  -- Ni 58                  0.01        2.64066
             Al 7  -- Ni 159                 0.16        2.64105
            Ni 126 -- Ni 131                 0.05        2.64157
            Ni 141 -- Ni 190                 0.08        2.64205
             Al 51 -- Al 52                  0.28        2.64248
            Ni 61  -- Ni 62                 -0.03        2.64307
             Al 39 -- Ni 130                 0.14        2.64343
             Al 54 -- Ni 25                  0.15        2.64402
            Ni 143 -- Ni 144                 0.10        2.64423
             Al 26 -- Ni 131                 0.16        2.64452
            Ni 61  -- Ni 120                 0.03        2.64458
            Ni 137 -- Ni 140                -0.03        2.64540
            Ni 112 -- Ni 160                 0.09        2.64625
             Al 62 -- Ni 23                  0.16        2.64638
            Ni 14  -- Ni 24                  0.07        2.64639
            Ni 129 -- Ni 130                 0.10        2.64642
             Al 53 -- Al 54                  0.25        2.64669
            Ni 77  -- Ni 114                 0.04        2.64674
            Ni 136 -- Ni 137                 0.04        2.64690
             Al 56 -- Al 61                  0.23        2.64701
             Al 24 -- Ni 175                 0.17        2.64727
            Ni 76  -- Ni 85                  0.11        2.64744
            Ni 108 -- Ni 143                 0.08        2.64756
            Ni 97  -- Ni 110                 0.01        2.64780
            Ni 64  -- Ni 65                  0.03        2.64786
             Al 31 -- Al 47                  0.24        2.64807
             Al 1  -- Al 11                  0.24        2.64830
             Al 39 -- Ni 71                  0.14        2.64881
            Ni 12  -- Ni 147                 0.04        2.64947
             Al 58 -- Ni 30                  0.12        2.65011
            Ni 133 -- Ni 134                -0.02        2.65019
             Al 35 -- Ni 138                 0.15        2.65049
             Al 19 -- Ni 130                 0.15        2.65061
             Al 1  -- Al 2                   0.23        2.65125
             Al 34 -- Al 41                  0.20        2.65135
             Al 61 -- Ni 16                  0.16        2.65150
            Ni 29  -- Ni 30                  0.12        2.65159
            Ni 158 -- Ni 159                 0.07        2.65272
            Ni 102 -- Ni 143                 0.12        2.65306
            Ni 62  -- Ni 63                  0.05        2.65353
            Ni 116 -- Ni 164                 0.00        2.65440
             Al 36 -- Al 52                  0.26        2.65503
            Ni 23  -- Ni 166                 0.06        2.65518
            Ni 125 -- Ni 136                 0.06        2.65582
            Ni 53  -- Ni 54                  0.02        2.65586
             Al 16 -- Al 17                  0.26        2.65680
            Ni 191 -- Ni 192                 0.02        2.65692
            Ni 21  -- Ni 161                -0.01        2.65708
            Ni 149 -- Ni 158                 0.07        2.65733
             Al 25 -- Al 34                  0.24        2.65838
            Ni 91  -- Ni 146                 0.04        2.65843
             Al 30 -- Ni 130                 0.14        2.65954
            Ni 95  -- Ni 100                 0.05        2.65957
             Al 22 -- Ni 98                  0.15        2.66071
             Al 47 -- Ni 86                  0.13        2.66072
            Ni 94  -- Ni 95                 -0.01        2.66075
            Ni 48  -- Ni 191                 0.01        2.66154
            Ni 16  -- Ni 24                  0.10        2.66296
             Al 5  -- Al 6                   0.23        2.66317
            Ni 25  -- Ni 26                  0.04        2.66340
            Ni 75  -- Ni 124                 0.03        2.66340
             Al 38 -- Al 39                  0.21        2.66364
             Al 54 -- Ni 79                  0.14        2.66404
             Al 52 -- Al 55                  0.25        2.66633
            Ni 32  -- Ni 161                -0.06        2.66718
             Al 42 -- Al 43                  0.22        2.66743
             Al 52 -- Al 56                  0.25        2.66919
            Ni 75  -- Ni 138                 0.04        2.67015
            Ni 58  -- Ni 96                 -0.01        2.67074
             Al 24 -- Al 27                  0.23        2.67138
            Ni 3   -- Ni 37                 -0.01        2.67281
             Al 4  -- Al 5                   0.22        2.67373
            Ni 50  -- Ni 66                  0.02        2.67425
             Al 37 -- Al 38                  0.23        2.67795
             Al 15 -- Al 59                  0.21        2.67902
             Al 26 -- Al 39                  0.22        2.68035
             Al 32 -- Al 47                  0.24        2.68062
            Ni 14  -- Ni 62                  0.08        2.68191
             Al 63 -- Ni 2                   0.14        2.68202
            Ni 128 -- Ni 130                 0.10        2.68320
             Al 26 -- Al 27                  0.22        2.68347
            Ni 165 -- Ni 166                 0.07        2.68440
             Al 52 -- Al 57                  0.27        2.68456
             Al 9  -- Al 53                  0.23        2.68484
            Ni 19  -- Ni 21                 -0.03        2.68569
            Ni 69  -- Ni 83                  0.02        2.68591
             Al 27 -- Ni 131                 0.14        2.68848
             Al 19 -- Al 23                  0.22        2.69002
             Al 43 -- Al 44                  0.21        2.69132
             Al 43 -- Ni 62                  0.12        2.69264
             Al 7  -- Al 8                   0.20        2.69341
             Al 54 -- Ni 24                  0.12        2.69344
            Ni 163 -- Ni 175                 0.01        2.69408
             Al 7  -- Ni 174                 0.13        2.69415
            Ni 123 -- Ni 125                 0.02        2.69557
            Ni 30  -- Ni 31                  0.06        2.69585
            Ni 32  -- Ni 174                 0.02        2.69645
             Al 19 -- Ni 133                 0.12        2.69649
             Al 5  -- Al 58                  0.22        2.69737
             Al 45 -- Al 46                  0.21        2.69759
            Ni 48  -- Ni 176                 0.00        2.69771
             Al 19 -- Al 38                  0.21        2.69780
             Al 2  -- Ni 180                 0.15        2.69899
             Al 33 -- Al 35                  0.20        2.69909
             Al 20 -- Al 30                  0.20        2.69912
             Al 14 -- Al 15                  0.23        2.70041
             Al 2  -- Al 50                  0.21        2.70334
             Al 37 -- Ni 75                  0.13        2.70360
             Al 9  -- Al 59                  0.24        2.70504
             Al 6  -- Al 49                  0.20        2.70510
            Ni 1   -- Ni 2                   0.03        2.70571
             Al 41 -- Al 42                  0.17        2.70614
             Al 31 -- Al 46                  0.19        2.70626
            Ni 2   -- Ni 3                   0.05        2.70651
             Al 43 -- Ni 111                 0.12        2.70758
             Al 64 -- Ni 2                   0.14        2.70799
            Ni 144 -- Ni 145                -0.01        2.70836
             Al 33 -- Ni 75                  0.18        2.71027
             Al 11 -- Al 13                  0.21        2.71167
             Al 1  -- Ni 153                 0.11        2.71241
             Al 59 -- Al 60                  0.20        2.71497
             Al 25 -- Al 42                  0.20        2.71518
            Ni 35  -- Ni 84                  0.02        2.71642
             Al 37 -- Al 40                  0.18        2.72024
             Al 12 -- Al 62                  0.21        2.72152
             Al 20 -- Al 31                  0.19        2.72319
             Al 50 -- Ni 34                  0.13        2.72343
             Al 63 -- Al 64                  0.23        2.72607
             Al 11 -- Al 12                  0.19        2.72898
             Al 40 -- Al 41                  0.18        2.72935
             Al 41 -- Al 55                  0.18        2.73042
             Al 33 -- Al 34                  0.17        2.73550
             Al 7  -- Al 24                  0.19        2.74198
            Ni 37  -- Ni 180                 0.03        2.74213
            Ni 34  -- Ni 176                 0.07        2.74445
             Al 57 -- Al 58                  0.19        2.74912
             Al 47 -- Ni 139                 0.10        2.75190
             Al 23 -- Ni 142                 0.09        2.76156
             Al 8  -- Al 24                  0.18        2.76851
             Al 22 -- Ni 186                 0.08        2.76989
             Al 36 -- Al 55                  0.22        2.77826
             Al 53 -- Al 60                  0.18        2.77861
             Al 34 -- Al 35                  0.16        2.78110
             Al 25 -- Ni 75                  0.11        2.78112
             Al 61 -- Ni 155                 0.09        2.78724
             Al 16 -- Al 18                  0.18        2.78760
             Al 19 -- Al 30                  0.16        2.78824
             Al 4  -- Al 6                   0.16        2.80285
             Al 3  -- Al 49                  0.16        2.81167
             Al 33 -- Al 41                  0.16        2.81325
             Al 3  -- Al 4                   0.15        2.81507
             Al 51 -- Al 56                  0.17        2.81778
             Al 33 -- Al 55                  0.13        2.81854
             Al 14 -- Al 17                  0.17        2.81860
             Al 5  -- Ni 31                  0.07        2.82660
             Al 15 -- Al 18                  0.17        2.82711
             Al 40 -- Al 55                  0.19        2.83148
             Al 3  -- Al 6                   0.16        2.83274
             Al 10 -- Al 15                  0.16        2.83686
             Al 44 -- Al 48                  0.18        2.84019
             Al 12 -- Al 13                  0.14        2.85840
             Al 14 -- Al 18                  0.16        2.85996
             Al 51 -- Al 58                  0.14        2.86300
             Al 36 -- Al 40                  0.19        2.86502
             Al 29 -- Al 44                  0.15        2.86891
             Al 10 -- Al 59                  0.11        2.87468
             Al 9  -- Al 60                  0.12        2.87537
             Al 28 -- Al 44                  0.15        2.88467
             Al 36 -- Al 37                  0.10        2.88679
             Al 56 -- Al 57                  0.16        2.89375
             Al 28 -- Al 29                  0.13        2.89493
             Al 28 -- Al 48                  0.14        2.89505
             Al 29 -- Al 48                  0.12        2.93804
             Al 15 -- Al 17                  0.10        2.96528
======================================================================
 

Writing analysis data to castep.castep_bin

Writing model to castep.check
 
 A BibTeX formatted list of references used in this run has been written to 
 castep.bib
 
Initialisation time =     30.84 s
Calculation time    =  68007.68 s
Finalisation time   =     46.54 s
Total time          =  68085.05 s
Peak Memory Use     = 2454160 kB
  
Overall parallel efficiency rating: Good (71%)                                  
  
Data was distributed by:-
G-vector (28-way); efficiency rating: Good (71%)                                
