 +-------------------------------------------------+
 |                                                 |
 |      CCC   AA    SSS  TTTTT  EEEEE  PPPP        |
 |     C     A  A  S       T    E      P   P       |
 |     C     AAAA   SS     T    EEE    PPPP        |
 |     C     A  A     S    T    E      P           |
 |      CCC  A  A  SSS     T    EEEEE  P           |
 |                                                 |
 +-------------------------------------------------+
 |                                                 |
 | Welcome to Academic Release CASTEP version 20.11|          
 | Ab Initio Total Energy Program                  |
 |                                                 |
 | Authors:                                        |
 | M. Segall, M. Probert, C. Pickard, P. Hasnip,   |
 | S. Clark, K. Refson, J. R. Yates, M. Payne      |
 |                                                 |
 | Contributors:                                   |
 | P. Lindan, P. Haynes, J. White, V. Milman,      |
 | N. Govind, M. Gibson, P. Tulip, V. Cocula,      |
 | B. Montanari, D. Quigley, M. Glover,            |
 | L. Bernasconi, A. Perlov, M. Plummer,           |
 | E. McNellis, J. Meyer, J. Gale, D. Jochym       |
 | J. Aarons, B. Walker, R. Gillen, D. Jones       |
 | T. Green, I. J. Bush, C. J. Armstrong,          |
 | E. J. Higgins, E. L. Brown, M. S. McFly,        |
 | J. Wilkins, B-C. Shih, P. J. P. Byrne,          |
 | R. J. Maurer, J. C. Womack, J. Dziedzic,        |
 | J. R. Kermode, A. Bartok-Partay                 |
 |                                                 |
 | Copyright (c) 2000 - 2020                       |
 |                                                 |
 |     Distributed under license from Cambridge    |
 |     Enterprise for academic use only.           |
 |                                                 |
 | Please cite                                     |
 |                                                 |
 |     "First principles methods using CASTEP"     |
 |                                                 |
 |         Zeitschrift fuer Kristallographie       |
 |           220(5-6) pp. 567-570 (2005)           |
 |                                                 |
 | S. J. Clark, M. D. Segall, C. J. Pickard,       |
 | P. J. Hasnip, M. J. Probert, K. Refson,         |
 | M. C. Payne                                     |
 |                                                 |
 |       in all publications arising from          |
 |              your use of CASTEP                 |
 |                                                 |
 +-------------------------------------------------+
 |                                                 |
 |              http://www.castep.org              |
 |                                                 |
 +-------------------------------------------------+
 
 
 
 Compiled for linux_x86_64_ifort on Wed, 25 Aug 2021 18:50:38 +0100
 from code version e772bf432+  HEAD  Sat Apr 3 17:41:32 2021 +0100
 Compiler: Intel Fortran 19.0.5.281; Optimisation: fast
 MATHLIBS: Intel MKL(2019.0.5) (LAPACK version 3.7.0)
 FFT Lib : mkl
 Fundamental constants values: CODATA 2014
 
 Run started: Thu, 09 Mar 2023 19:36:48 +0000
 
 Atomic calculation performed for Al: 1s2 2s2 2p6 3s2 3p1
 
 Converged in 52 iterations to an ae energy of -6606.982 eV
 
   ============================================================                
   | Pseudopotential Report - Date of generation  9-03-2023   |                
   ------------------------------------------------------------                
   | Element: Al Ionic charge:  3.00 Level of theory: RPBE    |                
   | Atomic Solver: Koelling-Harmon                           |                
   |                                                          |                
   |               Reference Electronic Structure             |                
   |         Orbital         Occupation         Energy        |                
   |            3s              2.000           -0.284        |                
   |            3p              1.000           -0.100        |                
   |                                                          |                
   |                 Pseudopotential Definition               |                
   |        Beta     l      e      Rc     scheme   norm       |                
   |          1      0   -0.284   2.192     qc      0         |                
   |          2      0    0.250   2.192     qc      0         |                
   |          3      1   -0.100   2.192     qc      0         |                
   |          4      1    0.250   2.192     qc      0         |                
   |          5      2    0.000   2.000     qc      0         |                
   |          6      2    0.250   2.000     qc      0         |                
   |         loc     3    0.000   2.192     pn      0         |                
   |                                                          |                
   | Augmentation charge Rinner = 1.398                       |                
   | Partial core correction Rc = 1.398                       |                
   ------------------------------------------------------------                
   | "3|2.2|2.2|1.4|4|5|5|30:31:32U2U2"                       |                
   ------------------------------------------------------------                
   |      Author: Chris J. Pickard, Cambridge University      |                
   ============================================================                
 
 Atomic calculation performed for Ni: 1s2 2s2 2p6 3s2 3p6 3d8 4s2
 
 Converged in 109 iterations to an ae energy of -41381.414 eV
 
   ============================================================                
   | Pseudopotential Report - Date of generation  9-03-2023   |                
   ------------------------------------------------------------                
   | Element: Ni Ionic charge: 10.00 Level of theory: RPBE    |                
   | Atomic Solver: Koelling-Harmon                           |                
   |                                                          |                
   |               Reference Electronic Structure             |                
   |         Orbital         Occupation         Energy        |                
   |            3d              8.000           -0.324        |                
   |            4s              2.000           -0.204        |                
   |                                                          |                
   |                 Pseudopotential Definition               |                
   |        Beta     l      e      Rc     scheme   norm       |                
   |          1      0   -0.204   2.401     qc      0         |                
   |          2      0    0.250   2.401     qc      0         |                
   |          3      1    0.000   2.401     qc      0         |                
   |          4      1    0.250   2.401     qc      0         |                
   |          5      2   -0.324   1.999     qc      0         |                
   |          6      2    0.250   1.999     qc      0         |                
   |         loc     3    0.000   2.401     pn      0         |                
   |                                                          |                
   | Augmentation charge Rinner = 1.001                       |                
   | Partial core correction Rc = 1.001                       |                
   ------------------------------------------------------------                
   | "3|2.4|2.4|1.0|8|9|10|40:41:32U2U2(qc=5.5)"              |                
   ------------------------------------------------------------                
   |      Author: Chris J. Pickard, Cambridge University      |                
   ============================================================                
 
 Pseudo atomic calculation performed for Al 3s2 3p1
 
 Converged in 13 iterations to a total energy of -107.6592 eV
 
 Pseudo atomic calculation performed for Ni 3d8 4s2
 
 Converged in 41 iterations to a total energy of -1369.7891 eV
 Calculation parallelised over 48 processes.
 Data is distributed by G-vector(48-way)

 ************************************ Title ************************************
 

 ***************************** General Parameters ******************************
  
 output verbosity                               : normal  (1)
 write checkpoint data to                       : castep.check
 type of calculation                            : geometry optimization
 stress calculation                             : off
 density difference calculation                 : off
 electron localisation func (ELF) calculation   : off
 Hirshfeld analysis                             : off
 molecular orbital projected DOS                : off
 deltaSCF calculation                           : off
 unlimited duration calculation
 timing information                             : on
 memory usage estimate                          : on
 write extra output files                       : on
 write final potential to formatted file        : off
 write final density to formatted file          : off
 write BibTeX reference list                    : on
 write OTFG pseudopotential files               : on
 write electrostatic potential file             : on
 write bands file                               : on
 checkpoint writing                             : both castep_bin and check files
  
 output         length unit                     : A
 output           mass unit                     : amu
 output           time unit                     : ps
 output         charge unit                     : e
 output           spin unit                     : hbar/2
 output         energy unit                     : eV
 output          force unit                     : eV/A
 output       velocity unit                     : A/ps
 output       pressure unit                     : GPa
 output     inv_length unit                     : 1/A
 output      frequency unit                     : cm-1
 output force constant unit                     : eV/A**2
 output         volume unit                     : A**3
 output   IR intensity unit                     : (D/A)**2/amu
 output         dipole unit                     : D
 output         efield unit                     : eV/A/e
 output        entropy unit                     : J/mol/K
 output    efield chi2 unit                     : pm/V
  
 wavefunctions paging                           : none
 random number generator seed                   : randomised (193648165)
 data distribution                              : optimal for this architecture
 optimization strategy                          : maximize speed(+++)

 *********************** Exchange-Correlation Parameters ***********************
  
 using functional                               : revised Perdew Burke Ernzerhof
 relativistic treatment                         : Koelling-Harmon
 DFT+D: Semi-empirical dispersion correction    : off

 ************************* Pseudopotential Parameters **************************
  
 pseudopotential representation                 : reciprocal space
 <beta|phi> representation                      : reciprocal space
 spin-orbit coupling                            : off

 **************************** Basis Set Parameters *****************************
  
 plane wave basis set cut-off                   :   900.0000   eV
 size of standard grid                          :     1.7500
 size of   fine   gmax                          :    26.8966   1/A
 finite basis set correction                    : none

 **************************** Electronic Parameters ****************************
  
 number of  electrons                           :  2088.    
 net charge of system                           :  0.000    
 treating system as non-spin-polarized
 number of bands                                :       1156

 ********************* Electronic Minimization Parameters **********************
  
 Method: Treating system as metallic with density mixing treatment of electrons,
         and number of  SD  steps               :          1
         and number of  CG  steps               :          4
  
 total energy / atom convergence tol.           : 0.1000E-05   eV
 eigen-energy convergence tolerance             : 0.2206E-06   eV
 max force / atom convergence tol.              : ignored
 convergence tolerance window                   :          3   cycles
 max. number of SCF cycles                      :        200
 number of fixed-spin iterations                :         10
 smearing scheme                                : Gaussian
 smearing width                                 : 0.2000       eV
 Fermi energy convergence tolerance             : 0.2721E-13   eV
 periodic dipole correction                     : NONE
 periodically dump wavefunctions to             : castep.wvfn
 dump wavefunctions every                       :          1   SCF cycles

 ************************** Density Mixing Parameters **************************
  
 density-mixing scheme                          : Pulay
 max. length of mixing history                  :         20
 charge density mixing amplitude                : 0.8000    
 cut-off energy for mixing                      :  900.0       eV

 *********************** Population Analysis Parameters ************************
  
 Population analysis with cutoff                :  3.000       A
 Population analysis output                     : summary and pdos components

 ********************** Geometry Optimization Parameters ***********************
  
 optimization method                            : LBFGS
 max. no. of LBFGS updates                      : unbounded
 variable cell method                           : fixed basis quality
 max. number of steps                           :         30
 estimated bulk modulus                         :  500.0       GPa
 estimated <frequency>                          :  1668.       cm-1
 geom line minimiser                            : on
 with line minimiser tolerance                  :     0.4000
 total energy convergence tolerance             : 0.2000E-04   eV/atom
        max ionic |force| tolerance             : 0.5000E-01   eV/A
 max ionic |displacement| tolerance             : 0.1000E-02   A
   max |stress component| tolerance             : 0.1000       GPa
 convergence tolerance window                   :          2   steps
 backup results every                           :          5   steps
 write geom trajectory file                     : on

 *******************************************************************************
  
 
                           -------------------------------
                                      Unit Cell
                           -------------------------------
        Real Lattice(A)                      Reciprocal Lattice(1/A)
    14.4648280     0.0000000     0.0000000        0.434376773   0.000000000   0.000000000
     0.0000000    14.4648280     0.0000000        0.000000000   0.434376773   0.000000000
     0.0000000     0.0000000    14.4648280        0.000000000   0.000000000   0.434376773
 
                       Lattice parameters(A)       Cell Angles
                    a =     14.464828          alpha =   90.000000
                    b =     14.464828          beta  =   90.000000
                    c =     14.464828          gamma =   90.000000
 
                       Current cell volume =          3026.494030       A**3
                                   density =             4.253712   AMU/A**3
                                           =             7.063455     g/cm^3
 
                           -------------------------------
                                     Cell Contents
                           -------------------------------
                         Total number of ions in cell =  255
                      Total number of species in cell =    2
                        Max number of any one species =  189
 
            xxxxxxxxxxxxxxxxxxxxxxxxxxxxxxxxxxxxxxxxxxxxxxxxxxxxxxxxxxxx
            x  Element    Atom        Fractional coordinates of atoms  x
            x            Number           u          v          w      x
            x----------------------------------------------------------x
            x  Al           1         0.059570   0.062871   0.814887   x 
            x  Al           2         0.061061   0.312280   0.814092   x 
            x  Al           3         0.061502   0.561422   0.813620   x 
            x  Al           4         0.060222   0.812210   0.814155   x 
            x  Al           5         0.058997   0.063098   0.063466   x 
            x  Al           6         0.059979   0.312147   0.064532   x 
            x  Al           7         0.058833   0.561403   0.064065   x 
            x  Al           8         0.057752   0.812333   0.062489   x 
            x  Al           9         0.057652   0.062893   0.313048   x 
            x  Al          10         0.060944   0.312585   0.314229   x 
            x  Al          11         0.060414   0.561918   0.314489   x 
            x  Al          12         0.057146   0.812444   0.313681   x 
            x  Al          13         0.058168   0.062955   0.565023   x 
            x  Al          14         0.062993   0.313281   0.564212   x 
            x  Al          15         0.063693   0.560721   0.563354   x 
            x  Al          16         0.058924   0.812479   0.564730   x 
            x  Al          17         0.799567   0.812799   0.562974   x 
            x  Al          18         0.936330   0.943478   0.561521   x 
            x  Al          19         0.547245   0.930176   0.933455   x 
            x  Al          20         0.567187   0.811015   0.563260   x 
            x  Al          21         0.549383   0.571746   0.561494   x 
            x  Al          22         0.686931   0.933577   0.809588   x 
            x  Al          23         0.426555   0.817788   0.687505   x 
            x  Al          24         0.936932   0.689956   0.563108   x 
            x  Al          25         0.684044   0.445809   0.817652   x 
            x  Al          26         0.549665   0.434700   0.686700   x 
            x  Al          27         0.309328   0.572124   0.561199   x 
            x  Al          28         0.815990   0.438527   0.680599   x 
            x  Al          29         0.683719   0.187690   0.575042   x 
            x  Al          30         0.308997   0.301292   0.563216   x 
            x  Al          31         0.311749   0.435986   0.696917   x 
            x  Al          32         0.942829   0.940374   0.322130   x 
            x  Al          33         0.433797   0.810759   0.431970   x 
            x  Al          34         0.303337   0.942735   0.437846   x 
            x  Al          35         0.932867   0.560883   0.432465   x 
            x  Al          36         0.689389   0.567055   0.430644   x 
            x  Al          37         0.305454   0.571936   0.306989   x 
            x  Al          38         0.926528   0.315217   0.437351   x 
            x  Al          39         0.686569   0.313746   0.433280   x 
            x  Al          40         0.541811   0.436900   0.427336   x 
            x  Al          41         0.316198   0.433874   0.427263   x 
            x  Al          42         0.931226   0.319389   0.189933   x 
            x  Al          43         0.927862   0.175922   0.313799   x 
            x  Al          44         0.682630   0.057333   0.435080   x 
            x  Al          45         0.435677   0.183684   0.325346   x 
            x  Al          46         0.931443   0.805518   0.936438   x 
            x  Al          47         0.812948   0.935574   0.188920   x 
            x  Al          48         0.685912   0.929567   0.057925   x 
            x  Al          49         0.302029   0.931946   0.188208   x 
            x  Al          50         0.814806   0.695870   0.196504   x 
            x  Al          51         0.942854   0.558706   0.192083   x 
            x  Al          52         0.686154   0.688929   0.065251   x 
            x  Al          53         0.557977   0.308320   0.065188   x 
            x  Al          54         0.689347   0.446566   0.068028   x 
            x  Al          55         0.429044   0.317643   0.195201   x 
            x  Al          56         0.929619   0.178698   0.057250   x 
            x  Al          57         0.560462   0.070231   0.060366   x 
            x  Al          58         0.432790   0.060893   0.189747   x 
            x  Al          59         0.931819   0.940433   0.810397   x 
            x  Al          60         0.935867   0.564452   0.939152   x 
            x  Al          61         0.687854   0.684185   0.808025   x 
            x  Al          62         0.552823   0.686801   0.942670   x 
            x  Al          63         0.425562   0.681558   0.813897   x 
            x  Al          64         0.929055   0.182599   0.816650   x 
            x  Al          65         0.927234   0.181878   0.567583   x 
            x  Al          66         0.690631   0.305961   0.936122   x 
            x  Ni           1         0.061726   0.187775   0.939541   x 
            x  Ni           2         0.185416   0.062892   0.939587   x 
            x  Ni           3         0.185182   0.187246   0.815034   x 
            x  Ni           4         0.061944   0.436470   0.939614   x 
            x  Ni           5         0.185840   0.311876   0.940805   x 
            x  Ni           6         0.185044   0.436236   0.815663   x 
            x  Ni           7         0.060977   0.686664   0.938472   x 
            x  Ni           8         0.184249   0.561188   0.941172   x 
            x  Ni           9         0.185194   0.686707   0.815026   x 
            x  Ni          10         0.060864   0.937785   0.938672   x 
            x  Ni          11         0.184389   0.812387   0.938614   x 
            x  Ni          12         0.185124   0.938142   0.815061   x 
            x  Ni          13         0.061105   0.187515   0.188495   x 
            x  Ni          14         0.184337   0.062557   0.187944   x 
            x  Ni          15         0.185847   0.187595   0.064594   x 
            x  Ni          16         0.061667   0.436452   0.189341   x 
            x  Ni          17         0.186075   0.311443   0.188939   x 
            x  Ni          18         0.185526   0.436542   0.065496   x 
            x  Ni          19         0.059041   0.687399   0.187755   x 
            x  Ni          20         0.182584   0.563254   0.187605   x 
            x  Ni          21         0.182846   0.687180   0.062851   x 
            x  Ni          22         0.060522   0.937956   0.187992   x 
            x  Ni          23         0.180545   0.812044   0.187456   x 
            x  Ni          24         0.182982   0.937554   0.062488   x 
            x  Ni          25         0.061037   0.187828   0.438918   x 
            x  Ni          26         0.181267   0.062385   0.438538   x 
            x  Ni          27         0.183308   0.186262   0.313437   x 
            x  Ni          28         0.064232   0.437093   0.440076   x 
            x  Ni          29         0.186597   0.311196   0.438987   x 
            x  Ni          30         0.185713   0.437906   0.313474   x 
            x  Ni          31         0.061124   0.687027   0.439190   x 
            x  Ni          32         0.188769   0.562451   0.437402   x 
            x  Ni          33         0.180834   0.689058   0.312365   x 
            x  Ni          34         0.059900   0.937822   0.438929   x 
            x  Ni          35         0.182142   0.814310   0.438621   x 
            x  Ni          36         0.181320   0.937827   0.313141   x 
            x  Ni          37         0.061706   0.188096   0.690078   x 
            x  Ni          38         0.183862   0.062512   0.690408   x 
            x  Ni          39         0.183172   0.185255   0.564736   x 
            x  Ni          40         0.065032   0.436783   0.687636   x 
            x  Ni          41         0.187956   0.311569   0.689272   x 
            x  Ni          42         0.196387   0.436718   0.562558   x 
            x  Ni          43         0.062776   0.686599   0.689586   x 
            x  Ni          44         0.187731   0.561606   0.688041   x 
            x  Ni          45         0.183449   0.688950   0.563491   x 
            x  Ni          46         0.061236   0.937639   0.690004   x 
            x  Ni          47         0.184630   0.813590   0.688825   x 
            x  Ni          48         0.182210   0.938997   0.564163   x 
            x  Ni          49         0.310388   0.187329   0.939690   x 
            x  Ni          50         0.433771   0.063491   0.939525   x 
            x  Ni          51         0.434842   0.186583   0.813895   x 
            x  Ni          52         0.308454   0.063306   0.814320   x 
            x  Ni          53         0.560291   0.188386   0.936261   x 
            x  Ni          54         0.680725   0.057136   0.936592   x 
            x  Ni          55         0.685210   0.186740   0.810700   x 
            x  Ni          56         0.557897   0.060004   0.814283   x 
            x  Ni          57         0.808264   0.183667   0.936725   x 
            x  Ni          58         0.935097   0.058287   0.936748   x 
            x  Ni          59         0.807080   0.059372   0.812489   x 
            x  Ni          60         0.310318   0.436771   0.939953   x 
            x  Ni          61         0.434951   0.312143   0.940871   x 
            x  Ni          62         0.435707   0.438111   0.817307   x 
            x  Ni          63         0.309574   0.310892   0.815927   x 
            x  Ni          64         0.563405   0.436220   0.942750   x 
            x  Ni          65         0.810095   0.316489   0.812390   x 
            x  Ni          66         0.560539   0.314501   0.815588   x 
            x  Ni          67         0.809234   0.441090   0.939194   x 
            x  Ni          68         0.936175   0.437795   0.811627   x 
            x  Ni          69         0.308732   0.685405   0.941495   x 
            x  Ni          70         0.433221   0.560962   0.942386   x 
            x  Ni          71         0.306217   0.560841   0.815639   x 
            x  Ni          72         0.684896   0.567752   0.940605   x 
            x  Ni          73         0.557218   0.564258   0.814088   x 
            x  Ni          74         0.810281   0.685864   0.937221   x 
            x  Ni          75         0.935355   0.687382   0.809408   x 
            x  Ni          76         0.310296   0.937844   0.939792   x 
            x  Ni          77         0.428924   0.809017   0.937759   x 
            x  Ni          78         0.430210   0.936777   0.812556   x 
            x  Ni          79         0.305916   0.812036   0.813781   x 
            x  Ni          80         0.554753   0.806847   0.811824   x 
            x  Ni          81         0.682498   0.807324   0.933919   x 
            x  Ni          82         0.554698   0.687595   0.689667   x 
            x  Ni          83         0.683107   0.810357   0.689226   x 
            x  Ni          84         0.809343   0.932698   0.936079   x 
            x  Ni          85         0.810988   0.810595   0.809351   x 
            x  Ni          86         0.938214   0.815119   0.684292   x 
            x  Ni          87         0.311888   0.186162   0.191684   x 
            x  Ni          88         0.433024   0.188576   0.066150   x 
            x  Ni          89         0.308582   0.061897   0.065434   x 
            x  Ni          90         0.555869   0.186907   0.190298   x 
            x  Ni          91         0.683540   0.059798   0.185831   x 
            x  Ni          92         0.686123   0.186829   0.063115   x 
            x  Ni          93         0.811984   0.184431   0.186207   x 
            x  Ni          94         0.937600   0.059061   0.187499   x 
            x  Ni          95         0.806826   0.056522   0.062230   x 
            x  Ni          96         0.311122   0.438982   0.195051   x 
            x  Ni          97         0.435305   0.436461   0.066250   x 
            x  Ni          98         0.309721   0.313215   0.066079   x 
            x  Ni          99         0.557946   0.437349   0.190893   x 
            x  Ni         100         0.684753   0.312889   0.187653   x 
            x  Ni         101         0.810423   0.439952   0.190621   x 
            x  Ni         102         0.809248   0.312533   0.063568   x 
            x  Ni         103         0.934410   0.437984   0.063353   x 
            x  Ni         104         0.934189   0.312331   0.939606   x 
            x  Ni         105         0.307695   0.691135   0.186132   x 
            x  Ni         106         0.433614   0.561553   0.191148   x 
            x  Ni         107         0.432999   0.686721   0.065972   x 
            x  Ni         108         0.307694   0.561064   0.067112   x 
            x  Ni         109         0.559650   0.689963   0.186775   x 
            x  Ni         110         0.686786   0.566454   0.191546   x 
            x  Ni         111         0.559644   0.563127   0.066944   x 
            x  Ni         112         0.811300   0.810993   0.064338   x 
            x  Ni         113         0.813783   0.567715   0.069367   x 
            x  Ni         114         0.935520   0.688629   0.066641   x 
            x  Ni         115         0.432301   0.815264   0.188160   x 
            x  Ni         116         0.433478   0.938629   0.064285   x 
            x  Ni         117         0.306284   0.812651   0.063416   x 
            x  Ni         118         0.559421   0.938460   0.184043   x 
            x  Ni         119         0.685532   0.813889   0.188514   x 
            x  Ni         120         0.557831   0.812062   0.062278   x 
            x  Ni         121         0.940066   0.816131   0.191055   x 
            x  Ni         122         0.935746   0.935405   0.060996   x 
            x  Ni         123         0.308137   0.182348   0.439420   x 
            x  Ni         124         0.435767   0.058693   0.439639   x 
            x  Ni         125         0.307376   0.061267   0.312680   x 
            x  Ni         126         0.566218   0.186195   0.441357   x 
            x  Ni         127         0.560884   0.060352   0.564371   x 
            x  Ni         128         0.685621   0.184694   0.311363   x 
            x  Ni         129         0.559056   0.060891   0.312426   x 
            x  Ni         130         0.808528   0.056721   0.312607   x 
            x  Ni         131         0.433175   0.307959   0.437785   x 
            x  Ni         132         0.308065   0.308736   0.314692   x 
            x  Ni         133         0.681692   0.438520   0.313430   x 
            x  Ni         134         0.812674   0.565075   0.311139   x 
            x  Ni         135         0.557821   0.310380   0.312459   x 
            x  Ni         136         0.675690   0.442461   0.556333   x 
            x  Ni         137         0.808985   0.310728   0.311342   x 
            x  Ni         138         0.938196   0.435907   0.316927   x 
            x  Ni         139         0.307895   0.691159   0.435471   x 
            x  Ni         140         0.429074   0.566270   0.433078   x 
            x  Ni         141         0.433560   0.690051   0.308475   x 
            x  Ni         142         0.559066   0.688921   0.435402   x 
            x  Ni         143         0.685586   0.691371   0.311056   x 
            x  Ni         144         0.557665   0.564929   0.312847   x 
            x  Ni         145         0.811620   0.689941   0.437682   x 
            x  Ni         146         0.807138   0.439035   0.437724   x 
            x  Ni         147         0.938427   0.690213   0.316476   x 
            x  Ni         148         0.431338   0.937597   0.312086   x 
            x  Ni         149         0.305257   0.813126   0.313648   x 
            x  Ni         150         0.558376   0.934614   0.437409   x 
            x  Ni         151         0.683581   0.812917   0.436335   x 
            x  Ni         152         0.684406   0.936688   0.311277   x 
            x  Ni         153         0.558427   0.813723   0.311263   x 
            x  Ni         154         0.810259   0.937671   0.439912   x 
            x  Ni         155         0.936469   0.814613   0.443669   x 
            x  Ni         156         0.813737   0.817834   0.315957   x 
            x  Ni         157         0.311271   0.185157   0.689476   x 
            x  Ni         158         0.434731   0.060282   0.687561   x 
            x  Ni         159         0.436866   0.184039   0.562352   x 
            x  Ni         160         0.307959   0.062369   0.564353   x 
            x  Ni         161         0.557757   0.189348   0.690177   x 
            x  Ni         162         0.681410   0.060735   0.690678   x 
            x  Ni         163         0.804288   0.185798   0.440492   x 
            x  Ni         164         0.557077   0.934303   0.690062   x 
            x  Ni         165         0.809710   0.188966   0.691225   x 
            x  Ni         166         0.938630   0.061893   0.689425   x 
            x  Ni         167         0.936621   0.065714   0.441136   x 
            x  Ni         168         0.805249   0.061337   0.564799   x 
            x  Ni         169         0.432290   0.310688   0.688761   x 
            x  Ni         170         0.425965   0.437307   0.561430   x 
            x  Ni         171         0.681431   0.557562   0.685277   x 
            x  Ni         172         0.558521   0.313987   0.561121   x 
            x  Ni         173         0.811734   0.561349   0.809757   x 
            x  Ni         174         0.941305   0.309255   0.690828   x 
            x  Ni         175         0.938424   0.436723   0.558577   x 
            x  Ni         176         0.806885   0.313316   0.564438   x 
            x  Ni         177         0.308347   0.689052   0.688473   x 
            x  Ni         178         0.429927   0.562830   0.687593   x 
            x  Ni         179         0.433108   0.695421   0.562561   x 
            x  Ni         180         0.683271   0.684213   0.563061   x 
            x  Ni         181         0.683087   0.320851   0.689737   x 
            x  Ni         182         0.811400   0.685834   0.684562   x 
            x  Ni         183         0.938710   0.563625   0.684726   x 
            x  Ni         184         0.810439   0.563830   0.559980   x 
            x  Ni         185         0.307596   0.939503   0.687511   x 
            x  Ni         186         0.434466   0.933823   0.561055   x 
            x  Ni         187         0.306390   0.814426   0.560096   x 
            x  Ni         188         0.683709   0.938197   0.564640   x 
            x  Ni         189         0.810873   0.936432   0.686095   x 
            xxxxxxxxxxxxxxxxxxxxxxxxxxxxxxxxxxxxxxxxxxxxxxxxxxxxxxxxxxxx
 
 
                         No user defined ionic velocities
 
                           -------------------------------
                                   Details of Species
                           -------------------------------
 
                               Mass of species in AMU
                                    Al   26.9815400
                                    Ni   58.6934000
 
                          Electric Quadrupole Moment (Barn)
                                    Al    0.1466000 Isotope 27
                                    Ni    0.1620000 Isotope 61
 
                          Files used for pseudopotentials:
                                    Al 3|2.2|2.2|1.4|4|5|5|30:31:32U2U2
                                    Ni 3|2.4|2.4|1.0|8|9|10|40:41:32U2U2(qc=5.5)
 
                           -------------------------------
                              k-Points For BZ Sampling
                           -------------------------------
                       MP grid size for SCF calculation is  1  1  1
                            with an offset of   0.000  0.000  0.000
                       Number of kpoints used =             1
 
                           -------------------------------
                               Symmetry and Constraints
                           -------------------------------
 
                      Maximum deviation from symmetry =  0.00000         ANG
 
                      Number of symmetry operations   =           1
                      Number of ionic constraints     =           3
                      Point group of crystal =     1: C1, 1, 1
                      Space group of crystal =     1: P1, P 1
 
             Set iprint > 1 for details on symmetry rotations/translations
 
                         Centre of mass is constrained
             Set iprint > 1 for details of linear ionic constraints
 
                         Number of cell constraints= 6
                         Cell constraints are:  0 0 0 0 0 0
 
                         External pressure/stress (GPa)
                          0.00000   0.00000   0.00000
                                    0.00000   0.00000
                                              0.00000
  
+---------------- MEMORY AND SCRATCH DISK ESTIMATES PER PROCESS --------------+
|                                                     Memory          Disk    |
| Baseline code, static data and system overhead      622.0 MB         0.0 MB |
| BLAS internal memory storage                          0.0 MB         0.0 MB |
| Model and support data                              703.8 MB         0.0 MB |
| Electronic energy minimisation requirements         158.2 MB         0.0 MB |
| Force calculation requirements                        5.4 MB         0.0 MB |
|                                               ----------------------------- |
| Approx. total storage required per process         1484.1 MB         0.0 MB |
|                                                                             |
| Requirements will fluctuate during execution and may exceed these estimates |
+-----------------------------------------------------------------------------+
Calculating total energy with cut-off of  900.000 eV.
------------------------------------------------------------------------ <-- SCF
SCF loop      Energy           Fermi           Energy gain       Timer   <-- SCF
                               energy          per atom          (sec)   <-- SCF
------------------------------------------------------------------------ <-- SCF
Initial  -2.15613386E+005  0.00000000E+000                        15.75  <-- SCF
      1  -2.59987029E+005  7.18326988E+000   1.74014283E+002      57.51  <-- SCF
      2  -2.66857026E+005  3.71202818E+000   2.69411657E+001      96.63  <-- SCF
      3  -2.67565935E+005  3.68294060E+000   2.78003750E+000     137.60  <-- SCF
      4  -2.67621290E+005  3.82068865E+000   2.17075422E-001     173.82  <-- SCF
      5  -2.67993399E+005  6.88129711E+000   1.45925387E+000     219.89  <-- SCF
      6  -2.67714356E+005  5.70744338E+000  -1.09428731E+000     273.83  <-- SCF
      7  -2.67610237E+005  4.75604166E+000  -4.08311024E-001     321.97  <-- SCF
      8  -2.67586418E+005  4.47792069E+000  -9.34086337E-002     371.73  <-- SCF
      9  -2.67583139E+005  4.51348692E+000  -1.28575309E-002     417.27  <-- SCF
     10  -2.67599073E+005  4.63717156E+000   6.24862178E-002     462.65  <-- SCF
     11  -2.67583865E+005  4.49143331E+000  -5.96377711E-002     510.47  <-- SCF
     12  -2.67580130E+005  4.45430376E+000  -1.46501931E-002     555.74  <-- SCF
     13  -2.67580794E+005  4.46564989E+000   2.60561289E-003     601.12  <-- SCF
     14  -2.67580288E+005  4.46046266E+000  -1.98248454E-003     646.82  <-- SCF
     15  -2.67579516E+005  4.46091357E+000  -3.02994955E-003     691.82  <-- SCF
     16  -2.67579455E+005  4.46295030E+000  -2.40030930E-004     737.57  <-- SCF
     17  -2.67579507E+005  4.46733996E+000   2.06166659E-004     783.55  <-- SCF
     18  -2.67579425E+005  4.46772711E+000  -3.21087795E-004     829.19  <-- SCF
     19  -2.67579420E+005  4.46869733E+000  -2.18276961E-005     874.81  <-- SCF
     20  -2.67579448E+005  4.46864740E+000   1.12116522E-004     922.88  <-- SCF
     21  -2.67579410E+005  4.46963070E+000  -1.49273332E-004     967.44  <-- SCF
     22  -2.67579404E+005  4.46956263E+000  -2.30572577E-005    1012.20  <-- SCF
     23  -2.67579407E+005  4.46982447E+000   9.86227041E-006    1057.86  <-- SCF
     24  -2.67579405E+005  4.46955763E+000  -8.33920805E-006    1100.93  <-- SCF
     25  -2.67579403E+005  4.46962536E+000  -5.18882959E-006    1134.62  <-- SCF
     26  -2.67579404E+005  4.46968514E+000   2.20747909E-007    1165.60  <-- SCF
     27  -2.67579404E+005  4.46982445E+000   3.22577089E-007    1196.45  <-- SCF
------------------------------------------------------------------------ <-- SCF
 
Final energy, E             =  -267574.6595971     eV
Final free energy (E-TS)    =  -267579.4035908     eV
(energies not corrected for finite basis set)
 
NB est. 0K energy (E-0.5TS)      =  -267577.0315939     eV
 

Writing analysis data to castep.castep_bin

Writing model to castep.check
 
+---------------- MEMORY AND SCRATCH DISK ESTIMATES PER PROCESS --------------+
|                                                     Memory          Disk    |
| Model and support data                              713.9 MB         0.0 MB |
| Electronic energy minimisation requirements         158.2 MB         0.0 MB |
| Geometry minimisation requirements                  194.9 MB         0.0 MB |
|                                               ----------------------------- |
| Approx. total storage required per process         1067.1 MB         0.0 MB |
|                                                                             |
| Requirements will fluctuate during execution and may exceed these estimates |
+-----------------------------------------------------------------------------+
 
 
 ************************************** Forces **************************************
 *                                                                                  *
 *                           Cartesian components (eV/A)                            *
 * -------------------------------------------------------------------------------- *
 *                         x                    y                    z              *
 *                                                                                  *
 * Al              1      1.76435              0.04966              0.03059         *
 * Al              2      0.53894              0.48044              0.14982         *
 * Al              3      0.68206             -0.03209             -0.73554         *
 * Al              4      1.43660             -0.56450             -0.71670         *
 * Al              5      1.07687             -0.88534             -0.09961         *
 * Al              6      1.10727              0.45228             -0.72248         *
 * Al              7      1.76190              0.02289             -0.22125         *
 * Al              8      0.91389              0.01693              0.59464         *
 * Al              9      2.39900              0.31900             -0.04603         *
 * Al             10      1.65799              0.29656              0.12245         *
 * Al             11      2.07947              0.02956              0.27140         *
 * Al             12      1.27597             -0.84091              0.06893         *
 * Al             13      2.06253              0.36337              0.05834         *
 * Al             14      0.85243              0.33346              0.44383         *
 * Al             15      1.08753             -0.59185              0.44101         *
 * Al             16      1.83663              0.31897             -0.00624         *
 * Al             17     -0.23862              0.03816              0.06817         *
 * Al             18     -1.33152             -0.39063              0.22866         *
 * Al             19     -0.20816             -0.02677             -0.17429         *
 * Al             20      0.15499              0.14232              0.05782         *
 * Al             21     -0.08586              0.15869              0.20890         *
 * Al             22      0.03734              0.02423             -0.22814         *
 * Al             23     -0.08684              0.00288              0.05973         *
 * Al             24     -0.96672             -0.60420              0.50781         *
 * Al             25      0.02394              0.07921             -0.00132         *
 * Al             26      0.00349             -0.11805              0.07498         *
 * Al             27      0.16898              0.09749              0.06576         *
 * Al             28      0.02919             -0.01229             -0.01161         *
 * Al             29     -0.10789              0.12025              0.10794         *
 * Al             30      0.21399             -0.15711              0.04058         *
 * Al             31     -0.12061              0.04905              0.17670         *
 * Al             32     -2.20173             -0.34584             -0.16405         *
 * Al             33     -0.11700             -0.22296             -0.04144         *
 * Al             34      0.00095              0.04993              0.08472         *
 * Al             35     -1.07593             -0.31116              0.44473         *
 * Al             36      0.09469              0.13364              0.04110         *
 * Al             37      0.15550              0.11510             -0.18450         *
 * Al             38     -0.58904              0.48193              0.28522         *
 * Al             39     -0.00265             -0.03936              0.01027         *
 * Al             40     -0.24577             -0.18919             -0.35468         *
 * Al             41     -0.08688             -0.15015              0.01291         *
 * Al             42     -1.06866              0.16986             -0.15624         *
 * Al             43     -1.08420              0.46570             -0.15771         *
 * Al             44      0.06233             -0.14375             -0.07035         *
 * Al             45     -0.04942              0.13355              0.02087         *
 * Al             46     -1.12793             -0.07003              0.55007         *
 * Al             47     -0.01289              0.08204              0.01977         *
 * Al             48      0.03257             -0.07346              0.15483         *
 * Al             49     -0.10615             -0.04511             -0.00440         *
 * Al             50     -0.00716             -0.02313              0.05066         *
 * Al             51     -1.98429             -0.15270             -0.25947         *
 * Al             52      0.10028              0.00177              0.17281         *
 * Al             53     -0.21898             -0.10415              0.01789         *
 * Al             54      0.06110              0.16201              0.22283         *
 * Al             55     -0.12021              0.25831              0.05719         *
 * Al             56     -1.04719              0.57326             -0.02548         *
 * Al             57     -0.10557              0.19014             -0.00673         *
 * Al             58     -0.00114              0.06746             -0.13784         *
 * Al             59     -1.05461             -0.05257             -0.29047         *
 * Al             60     -1.54377             -0.06765             -0.29962         *
 * Al             61      0.06689             -0.02501             -0.27693         *
 * Al             62     -0.09377             -0.06812              0.06421         *
 * Al             63     -0.25535             -0.09226             -0.09947         *
 * Al             64     -0.72358              0.67906             -0.08741         *
 * Al             65     -0.74724              0.51078              0.27264         *
 * Al             66      0.06103             -0.31516             -0.25523         *
 * Ni              1     -0.13832             -0.09571             -0.01368         *
 * Ni              2      0.08612              0.01297             -0.01303         *
 * Ni              3      0.24494              0.05550             -0.08184         *
 * Ni              4     -0.25845              0.23380              0.06650         *
 * Ni              5      0.10617             -0.05542             -0.12392         *
 * Ni              6     -0.04331             -0.05536              0.12345         *
 * Ni              7     -0.05766             -0.00278             -0.03480         *
 * Ni              8      0.21428             -0.03934             -0.06383         *
 * Ni              9      0.21891             -0.03789             -0.00925         *
 * Ni             10     -0.27290             -0.49763             -0.58598         *
 * Ni             11      0.14247              0.04961              0.11900         *
 * Ni             12      0.12421              0.06364             -0.00399         *
 * Ni             13     -0.58310              0.59097             -0.04059         *
 * Ni             14      0.05230              0.17576              0.02830         *
 * Ni             15      0.21562             -0.03270              0.03277         *
 * Ni             16      0.14202             -0.07257             -0.07074         *
 * Ni             17      0.14390              0.01021              0.11073         *
 * Ni             18      0.07334              0.02569              0.01820         *
 * Ni             19      0.10988             -0.36022              0.06531         *
 * Ni             20      0.11189              0.03577             -0.04815         *
 * Ni             21      0.04170              0.04159              0.09233         *
 * Ni             22      0.15144              0.08112              0.17449         *
 * Ni             23      0.07204             -0.18005             -0.02892         *
 * Ni             24      0.14249             -0.00722             -0.19905         *
 * Ni             25     -0.61504              0.58578             -0.01036         *
 * Ni             26      0.02933              0.23432              0.04568         *
 * Ni             27      0.28164             -0.07409              0.01783         *
 * Ni             28      0.19370              0.00453             -0.21999         *
 * Ni             29      0.03102             -0.13767             -0.08647         *
 * Ni             30      0.17893             -0.08846             -0.05789         *
 * Ni             31     -0.04414             -0.33504              0.43824         *
 * Ni             32      0.01921              0.04373              0.04446         *
 * Ni             33      0.18645              0.20387             -0.00351         *
 * Ni             34      0.39688              0.13102              0.23480         *
 * Ni             35     -0.02670             -0.21702             -0.06199         *
 * Ni             36      0.01771             -0.05528             -0.06047         *
 * Ni             37      0.01095             -0.29788             -0.00131         *
 * Ni             38      0.09747              0.09868             -0.06005         *
 * Ni             39      0.12935             -0.07584             -0.02646         *
 * Ni             40     -0.21588             -0.02237             -0.01767         *
 * Ni             41      0.00215             -0.13915              0.06809         *
 * Ni             42      0.04865             -0.02256             -0.08585         *
 * Ni             43     -0.03873              0.22040             -0.28108         *
 * Ni             44     -0.00267              0.09119              0.10057         *
 * Ni             45      0.13636              0.10396             -0.09403         *
 * Ni             46      0.08227              0.07065              0.05398         *
 * Ni             47      0.07955              0.00966              0.03634         *
 * Ni             48      0.23938             -0.04271              0.19753         *
 * Ni             49     -0.06799              0.04283              0.12859         *
 * Ni             50     -0.05262             -0.04043             -0.01714         *
 * Ni             51     -0.06048              0.08202              0.08787         *
 * Ni             52      0.16633             -0.12257              0.02970         *
 * Ni             53     -0.09060              0.00872             -0.07920         *
 * Ni             54      0.01328             -0.01089              0.18165         *
 * Ni             55     -0.25718              0.00173             -0.01810         *
 * Ni             56     -0.07067              0.06291             -0.08625         *
 * Ni             57     -0.02543             -0.17002              0.07866         *
 * Ni             58     -0.25918              0.04245             -0.00286         *
 * Ni             59     -0.10792              0.21901             -0.00216         *
 * Ni             60     -0.16139             -0.06719              0.11528         *
 * Ni             61     -0.04631              0.07347             -0.23734         *
 * Ni             62     -0.11294             -0.06828              0.09109         *
 * Ni             63      0.18884             -0.10239              0.12713         *
 * Ni             64      0.11486             -0.08501              0.19827         *
 * Ni             65     -0.18232              0.06658             -0.06035         *
 * Ni             66      0.00342              0.04783             -0.01151         *
 * Ni             67      0.18035             -0.39567              0.03295         *
 * Ni             68      0.03587              0.06530              0.32132         *
 * Ni             69     -0.32404             -0.03475              0.05048         *
 * Ni             70      0.10417              0.00731             -0.07953         *
 * Ni             71      0.08987              0.02977              0.24083         *
 * Ni             72     -0.06455              0.02841             -0.04256         *
 * Ni             73     -0.07252              0.01657              0.20630         *
 * Ni             74      0.07675             -0.05630              0.02166         *
 * Ni             75      0.05978             -0.16368              0.07267         *
 * Ni             76     -0.18112              0.07580             -0.00062         *
 * Ni             77      0.00840             -0.09984              0.12647         *
 * Ni             78     -0.11978              0.19664             -0.03622         *
 * Ni             79      0.20474              0.06850              0.10117         *
 * Ni             80     -0.01233              0.00405              0.19754         *
 * Ni             81      0.22005              0.12788              0.14411         *
 * Ni             82      0.02903              0.06999             -0.17520         *
 * Ni             83      0.03059             -0.03124              0.16476         *
 * Ni             84      0.27975              0.28470              0.03621         *
 * Ni             85      0.08216             -0.04642              0.03969         *
 * Ni             86     -0.54722             -0.30805             -0.07629         *
 * Ni             87     -0.08418              0.03781             -0.12624         *
 * Ni             88     -0.17946             -0.04318             -0.24874         *
 * Ni             89      0.07549             -0.00903             -0.07426         *
 * Ni             90      0.22702             -0.00005              0.25544         *
 * Ni             91      0.08607             -0.04235              0.09042         *
 * Ni             92      0.09760              0.07971              0.14734         *
 * Ni             93     -0.18895              0.04558              0.01363         *
 * Ni             94     -0.28717              0.16261              0.07305         *
 * Ni             95     -0.15679              0.05231             -0.08268         *
 * Ni             96     -0.29183              0.02112             -0.32338         *
 * Ni             97     -0.10188              0.01670              0.14562         *
 * Ni             98      0.03178             -0.01551             -0.13656         *
 * Ni             99      0.07507             -0.01436              0.01802         *
 * Ni            100     -0.07448             -0.07610             -0.01392         *
 * Ni            101     -0.08956             -0.00662              0.17723         *
 * Ni            102     -0.00772              0.04850              0.04150         *
 * Ni            103     -0.08852              0.14236              0.00266         *
 * Ni            104     -0.17872              0.02519             -0.16191         *
 * Ni            105     -0.11648             -0.00895             -0.04823         *
 * Ni            106      0.16991              0.01309             -0.26552         *
 * Ni            107     -0.24462              0.04886              0.10236         *
 * Ni            108      0.25267              0.00815             -0.11302         *
 * Ni            109     -0.14477             -0.13168              0.22894         *
 * Ni            110     -0.29845              0.13105              0.09314         *
 * Ni            111     -0.15395             -0.01188             -0.09369         *
 * Ni            112     -0.16878             -0.06375             -0.11584         *
 * Ni            113     -0.15621             -0.04576             -0.12937         *
 * Ni            114      0.08200             -0.24418             -0.20204         *
 * Ni            115      0.22533             -0.16768             -0.12329         *
 * Ni            116     -0.10798              0.07480              0.01118         *
 * Ni            117      0.21954             -0.06019             -0.19076         *
 * Ni            118      0.03626              0.09156              0.15109         *
 * Ni            119     -0.20601             -0.00127              0.05580         *
 * Ni            120     -0.14183              0.07583              0.09181         *
 * Ni            121     -0.30529              0.13413             -0.05768         *
 * Ni            122     -0.06275             -0.05655             -0.18095         *
 * Ni            123     -0.22544             -0.09746             -0.01751         *
 * Ni            124      0.03156              0.03879              0.12870         *
 * Ni            125      0.02595              0.09527             -0.17244         *
 * Ni            126     -0.04009             -0.02696              0.07143         *
 * Ni            127     -0.18998              0.00507             -0.02749         *
 * Ni            128     -0.09045              0.03358             -0.19727         *
 * Ni            129     -0.06383             -0.11513             -0.07012         *
 * Ni            130     -0.10959              0.22710             -0.10970         *
 * Ni            131      0.06220              0.02834              0.35166         *
 * Ni            132      0.00131             -0.25867             -0.18054         *
 * Ni            133     -0.03591              0.01859             -0.02611         *
 * Ni            134     -0.19695             -0.34083             -0.17097         *
 * Ni            135      0.31865              0.02301             -0.11273         *
 * Ni            136     -0.09990              0.13104             -0.28279         *
 * Ni            137      0.13552             -0.04320             -0.05645         *
 * Ni            138     -0.35771              0.07843             -0.18376         *
 * Ni            139     -0.24833              0.01383              0.08676         *
 * Ni            140      0.01313              0.14615             -0.01950         *
 * Ni            141      0.13745             -0.12279              0.12147         *
 * Ni            142     -0.01060              0.02088             -0.15905         *
 * Ni            143     -0.22040              0.11383              0.25514         *
 * Ni            144      0.04479              0.08445             -0.18119         *
 * Ni            145      0.13126              0.30436             -0.17113         *
 * Ni            146      0.06441             -0.11370             -0.05992         *
 * Ni            147     -0.19251             -0.34623             -0.12839         *
 * Ni            148      0.19164             -0.06051              0.04935         *
 * Ni            149      0.07208             -0.05165              0.00834         *
 * Ni            150     -0.04704              0.05087              0.00092         *
 * Ni            151      0.11547              0.06551             -0.31277         *
 * Ni            152     -0.30997             -0.26377              0.09988         *
 * Ni            153      0.06427              0.08628             -0.26271         *
 * Ni            154      0.01957              0.00277              0.04418         *
 * Ni            155     -0.31727             -0.25003              0.08109         *
 * Ni            156     -0.28192             -0.02435              0.20883         *
 * Ni            157     -0.18576             -0.12141              0.15399         *
 * Ni            158      0.02390              0.07407              0.09739         *
 * Ni            159      0.11655             -0.00105              0.10863         *
 * Ni            160      0.15601              0.00516              0.04635         *
 * Ni            161     -0.03719             -0.12698              0.00461         *
 * Ni            162      0.23488             -0.09240             -0.03769         *
 * Ni            163      0.15046             -0.15009             -0.08131         *
 * Ni            164      0.02704              0.16323             -0.17874         *
 * Ni            165     -0.07466             -0.11691              0.08799         *
 * Ni            166     -0.62660              0.06629              0.04536         *
 * Ni            167     -0.50171             -0.26969             -0.00485         *
 * Ni            168     -0.06375              0.10779              0.14913         *
 * Ni            169     -0.05904             -0.07795              0.03904         *
 * Ni            170     -0.06329             -0.05655             -0.18726         *
 * Ni            171      0.02290              0.01530             -0.03898         *
 * Ni            172     -0.18541             -0.22188             -0.14644         *
 * Ni            173     -0.01646              0.03160              0.00039         *
 * Ni            174     -0.45305              0.13279             -0.24660         *
 * Ni            175     -0.07077              0.07202              0.14543         *
 * Ni            176     -0.01429             -0.08343             -0.07770         *
 * Ni            177     -0.28448              0.13390              0.09878         *
 * Ni            178      0.22745             -0.06506              0.06691         *
 * Ni            179     -0.04669              0.10192             -0.06158         *
 * Ni            180     -0.01243             -0.26029             -0.02289         *
 * Ni            181     -0.00869             -0.02766              0.23969         *
 * Ni            182      0.10832             -0.01129             -0.01749         *
 * Ni            183     -0.10876              0.01235              0.08534         *
 * Ni            184     -0.04112             -0.08627              0.15101         *
 * Ni            185     -0.21112              0.02666             -0.02813         *
 * Ni            186      0.02997              0.04020             -0.01160         *
 * Ni            187     -0.07512              0.05477              0.03324         *
 * Ni            188     -0.29329              0.09257              0.14771         *
 * Ni            189     -0.11039              0.17152             -0.15444         *
 *                                                                                  *
 ************************************************************************************
 LBFGS: finished iteration     0 with enthalpy= -2.67579404E+005 eV
  
 +-----------+-----------------+-----------------+------------+-----+ <-- LBFGS
 | Parameter |      value      |    tolerance    |    units   | OK? | <-- LBFGS
 +-----------+-----------------+-----------------+------------+-----+ <-- LBFGS
 |  dE/ion   |   0.000000E+000 |   2.000000E-005 |         eV | No  | <-- LBFGS
 |  |F|max   |   2.420551E+000 |   5.000000E-002 |       eV/A | No  | <-- LBFGS
 |  |dR|max  |   0.000000E+000 |   1.000000E-003 |          A | No  | <-- LBFGS
 +-----------+-----------------+-----------------+------------+-----+ <-- LBFGS
  

================================================================================
 Starting LBFGS iteration          1 ...
================================================================================
  
 +------------+-------------+-------------+-----------------+ <-- min LBFGS
 |    Step    |   lambda    |   F.delta'  |    enthalpy     | <-- min LBFGS
 +------------+-------------+-------------+-----------------+ <-- min LBFGS
 |  previous  |    0.000000 |    4.843813 |  -267579.403591 | <-- min LBFGS
 +------------+-------------+-------------+-----------------+ <-- min LBFGS
  

--------------------------------------------------------------------------------
 LBFGS: starting iteration         1 with trial guess (lambda=  1.000000)
--------------------------------------------------------------------------------
 
                           -------------------------------
                                     Cell Contents
                           -------------------------------
 
            xxxxxxxxxxxxxxxxxxxxxxxxxxxxxxxxxxxxxxxxxxxxxxxxxxxxxxxxxxxxxxxxx
            x  Element         Atom        Fractional coordinates of atoms  x
            x                 Number           u          v          w      x
            x---------------------------------------------------------------x
            x  Al                1         0.059806   0.062877   0.814891   x
            x  Al                2         0.061134   0.312344   0.814112   x
            x  Al                3         0.061593   0.561418   0.813521   x
            x  Al                4         0.060414   0.812135   0.814059   x
            x  Al                5         0.059141   0.062979   0.063453   x
            x  Al                6         0.060127   0.312207   0.064435   x
            x  Al                7         0.059069   0.561406   0.064036   x
            x  Al                8         0.057874   0.812336   0.062569   x
            x  Al                9         0.057973   0.062936   0.313042   x
            x  Al               10         0.061166   0.312625   0.314246   x
            x  Al               11         0.060692   0.561922   0.314525   x
            x  Al               12         0.057317   0.812331   0.313690   x
            x  Al               13         0.058444   0.063004   0.565031   x
            x  Al               14         0.063107   0.313325   0.564271   x
            x  Al               15         0.063839   0.560642   0.563413   x
            x  Al               16         0.059169   0.812521   0.564729   x
            x  Al               17         0.799535   0.812804   0.562983   x
            x  Al               18         0.936152   0.943426   0.561552   x
            x  Al               19         0.547217   0.930172   0.933432   x
            x  Al               20         0.567208   0.811034   0.563268   x
            x  Al               21         0.549372   0.571768   0.561522   x
            x  Al               22         0.686936   0.933580   0.809558   x
            x  Al               23         0.426543   0.817788   0.687513   x
            x  Al               24         0.936802   0.689875   0.563176   x
            x  Al               25         0.684047   0.445819   0.817652   x
            x  Al               26         0.549666   0.434685   0.686710   x
            x  Al               27         0.309351   0.572137   0.561208   x
            x  Al               28         0.815994   0.438525   0.680597   x
            x  Al               29         0.683705   0.187706   0.575056   x
            x  Al               30         0.309026   0.301271   0.563221   x
            x  Al               31         0.311732   0.435992   0.696940   x
            x  Al               32         0.942535   0.940328   0.322108   x
            x  Al               33         0.433781   0.810729   0.431964   x
            x  Al               34         0.303337   0.942742   0.437858   x
            x  Al               35         0.932723   0.560841   0.432525   x
            x  Al               36         0.689402   0.567072   0.430650   x
            x  Al               37         0.305475   0.571951   0.306964   x
            x  Al               38         0.926449   0.315282   0.437389   x
            x  Al               39         0.686569   0.313741   0.433282   x
            x  Al               40         0.541778   0.436875   0.427289   x
            x  Al               41         0.316186   0.433854   0.427265   x
            x  Al               42         0.931083   0.319411   0.189912   x
            x  Al               43         0.927717   0.175985   0.313777   x
            x  Al               44         0.682638   0.057314   0.435071   x
            x  Al               45         0.435671   0.183702   0.325349   x
            x  Al               46         0.931292   0.805509   0.936512   x
            x  Al               47         0.812946   0.935585   0.188923   x
            x  Al               48         0.685917   0.929557   0.057946   x
            x  Al               49         0.302014   0.931940   0.188208   x
            x  Al               50         0.814805   0.695867   0.196511   x
            x  Al               51         0.942589   0.558685   0.192048   x
            x  Al               52         0.686168   0.688929   0.065275   x
            x  Al               53         0.557948   0.308306   0.065191   x
            x  Al               54         0.689355   0.446587   0.068057   x
            x  Al               55         0.429028   0.317678   0.195209   x
            x  Al               56         0.929479   0.178774   0.057247   x
            x  Al               57         0.560448   0.070256   0.060365   x
            x  Al               58         0.432790   0.060902   0.189728   x
            x  Al               59         0.931677   0.940426   0.810358   x
            x  Al               60         0.935661   0.564443   0.939111   x
            x  Al               61         0.687863   0.684182   0.807988   x
            x  Al               62         0.552811   0.686792   0.942678   x
            x  Al               63         0.425528   0.681546   0.813884   x
            x  Al               64         0.928958   0.182690   0.816639   x
            x  Al               65         0.927134   0.181947   0.567619   x
            x  Al               66         0.690639   0.305919   0.936088   x
            x  Ni                1         0.061707   0.187763   0.939539   x
            x  Ni                2         0.185428   0.062894   0.939585   x
            x  Ni                3         0.185215   0.187253   0.815023   x
            x  Ni                4         0.061909   0.436501   0.939623   x
            x  Ni                5         0.185854   0.311868   0.940789   x
            x  Ni                6         0.185039   0.436229   0.815680   x
            x  Ni                7         0.060969   0.686664   0.938467   x
            x  Ni                8         0.184278   0.561182   0.941164   x
            x  Ni                9         0.185223   0.686702   0.815024   x
            x  Ni               10         0.060827   0.937718   0.938593   x
            x  Ni               11         0.184408   0.812394   0.938630   x
            x  Ni               12         0.185140   0.938151   0.815060   x
            x  Ni               13         0.061027   0.187594   0.188490   x
            x  Ni               14         0.184344   0.062580   0.187948   x
            x  Ni               15         0.185876   0.187591   0.064599   x
            x  Ni               16         0.061686   0.436442   0.189331   x
            x  Ni               17         0.186094   0.311444   0.188954   x
            x  Ni               18         0.185536   0.436546   0.065499   x
            x  Ni               19         0.059055   0.687351   0.187763   x
            x  Ni               20         0.182599   0.563259   0.187598   x
            x  Ni               21         0.182852   0.687186   0.062864   x
            x  Ni               22         0.060542   0.937967   0.188016   x
            x  Ni               23         0.180554   0.812020   0.187452   x
            x  Ni               24         0.183001   0.937553   0.062461   x
            x  Ni               25         0.060954   0.187907   0.438917   x
            x  Ni               26         0.181271   0.062417   0.438544   x
            x  Ni               27         0.183345   0.186252   0.313439   x
            x  Ni               28         0.064258   0.437094   0.440046   x
            x  Ni               29         0.186601   0.311178   0.438976   x
            x  Ni               30         0.185737   0.437894   0.313467   x
            x  Ni               31         0.061118   0.686982   0.439248   x
            x  Ni               32         0.188771   0.562457   0.437408   x
            x  Ni               33         0.180859   0.689086   0.312365   x
            x  Ni               34         0.059954   0.937839   0.438961   x
            x  Ni               35         0.182138   0.814281   0.438612   x
            x  Ni               36         0.181323   0.937819   0.313133   x
            x  Ni               37         0.061708   0.188056   0.690077   x
            x  Ni               38         0.183875   0.062525   0.690400   x
            x  Ni               39         0.183190   0.185245   0.564732   x
            x  Ni               40         0.065003   0.436780   0.687633   x
            x  Ni               41         0.187956   0.311551   0.689281   x
            x  Ni               42         0.196394   0.436715   0.562546   x
            x  Ni               43         0.062770   0.686628   0.689548   x
            x  Ni               44         0.187730   0.561619   0.688054   x
            x  Ni               45         0.183467   0.688963   0.563479   x
            x  Ni               46         0.061247   0.937648   0.690011   x
            x  Ni               47         0.184641   0.813591   0.688830   x
            x  Ni               48         0.182242   0.938991   0.564189   x
            x  Ni               49         0.310379   0.187335   0.939707   x
            x  Ni               50         0.433764   0.063485   0.939522   x
            x  Ni               51         0.434834   0.186594   0.813907   x
            x  Ni               52         0.308476   0.063289   0.814324   x
            x  Ni               53         0.560279   0.188387   0.936250   x
            x  Ni               54         0.680727   0.057134   0.936617   x
            x  Ni               55         0.685176   0.186741   0.810697   x
            x  Ni               56         0.557888   0.060012   0.814272   x
            x  Ni               57         0.808260   0.183644   0.936736   x
            x  Ni               58         0.935062   0.058293   0.936747   x
            x  Ni               59         0.807066   0.059401   0.812489   x
            x  Ni               60         0.310296   0.436762   0.939968   x
            x  Ni               61         0.434945   0.312153   0.940839   x
            x  Ni               62         0.435692   0.438101   0.817319   x
            x  Ni               63         0.309599   0.310879   0.815944   x
            x  Ni               64         0.563421   0.436209   0.942776   x
            x  Ni               65         0.810070   0.316498   0.812381   x
            x  Ni               66         0.560539   0.314507   0.815587   x
            x  Ni               67         0.809259   0.441037   0.939199   x
            x  Ni               68         0.936180   0.437804   0.811670   x
            x  Ni               69         0.308689   0.685401   0.941502   x
            x  Ni               70         0.433235   0.560963   0.942375   x
            x  Ni               71         0.306229   0.560845   0.815671   x
            x  Ni               72         0.684888   0.567756   0.940600   x
            x  Ni               73         0.557208   0.564260   0.814115   x
            x  Ni               74         0.810292   0.685857   0.937224   x
            x  Ni               75         0.935363   0.687360   0.809418   x
            x  Ni               76         0.310272   0.937854   0.939792   x
            x  Ni               77         0.428925   0.809004   0.937776   x
            x  Ni               78         0.430194   0.936804   0.812551   x
            x  Ni               79         0.305944   0.812046   0.813795   x
            x  Ni               80         0.554752   0.806847   0.811850   x
            x  Ni               81         0.682528   0.807341   0.933938   x
            x  Ni               82         0.554702   0.687604   0.689643   x
            x  Ni               83         0.683111   0.810353   0.689248   x
            x  Ni               84         0.809381   0.932736   0.936084   x
            x  Ni               85         0.810999   0.810589   0.809357   x
            x  Ni               86         0.938140   0.815078   0.684282   x
            x  Ni               87         0.311876   0.186167   0.191667   x
            x  Ni               88         0.433000   0.188570   0.066116   x
            x  Ni               89         0.308592   0.061896   0.065424   x
            x  Ni               90         0.555900   0.186907   0.190332   x
            x  Ni               91         0.683551   0.059793   0.185843   x
            x  Ni               92         0.686136   0.186840   0.063135   x
            x  Ni               93         0.811959   0.184437   0.186209   x
            x  Ni               94         0.937562   0.059083   0.187509   x
            x  Ni               95         0.806805   0.056529   0.062219   x
            x  Ni               96         0.311083   0.438985   0.195007   x
            x  Ni               97         0.435291   0.436463   0.066269   x
            x  Ni               98         0.309725   0.313213   0.066060   x
            x  Ni               99         0.557956   0.437347   0.190896   x
            x  Ni              100         0.684743   0.312879   0.187651   x
            x  Ni              101         0.810411   0.439951   0.190645   x
[...]
            Ni 100 -- Ni 133                 0.10        2.60117
            Ni 4   -- Ni 18                  0.02        2.60145
            Ni 127 -- Ni 161                 0.05        2.60161
            Ni 161 -- Ni 172                 0.07        2.60164
            Ni 41  -- Ni 42                  0.00        2.60181
             Al 56 -- Ni 94                  0.18        2.60215
            Ni 165 -- Ni 174                 0.01        2.60244
            Ni 40  -- Ni 175                 0.00        2.60294
             Al 9  -- Ni 34                  0.19        2.60337
            Ni 165 -- Ni 166                 0.01        2.60342
            Ni 157 -- Ni 159                 0.05        2.60397
            Ni 171 -- Ni 173                 0.03        2.60406
             Al 5  -- Ni 15                  0.19        2.60425
            Ni 158 -- Ni 186                 0.11        2.60451
            Ni 26  -- Ni 160                 0.07        2.60466
            Ni 31  -- Ni 32                  0.06        2.60483
             Al 16 -- Ni 31                  0.17        2.60556
            Ni 81  -- Ni 112                 0.01        2.60579
            Ni 55  -- Ni 181                 0.08        2.60592
            Ni 46  -- Ni 86                 -0.03        2.60608
            Ni 134 -- Ni 138                 0.05        2.60616
            Ni 26  -- Ni 125                 0.10        2.60664
             Al 42 -- Ni 93                  0.15        2.60670
            Ni 94  -- Ni 122                 0.09        2.60680
             Al 49 -- Ni 116                 0.17        2.60697
             Al 63 -- Ni 80                  0.17        2.60699
             Al 5  -- Ni 94                  0.19        2.60710
            Ni 79  -- Ni 185                 0.05        2.60732
            Ni 67  -- Ni 173                 0.02        2.60743
             Al 34 -- Ni 186                 0.17        2.60784
             Al 16 -- Ni 86                  0.17        2.60816
             Al 6  -- Ni 104                 0.20        2.60837
             Al 32 -- Ni 121                 0.15        2.60850
            Ni 1   -- Ni 104                -0.04        2.60866
            Ni 177 -- Ni 187                 0.06        2.60866
            Ni 101 -- Ni 102                 0.02        2.60894
            Ni 105 -- Ni 106                 0.06        2.60897
            Ni 167 -- Ni 168                 0.04        2.60903
             Al 8  -- Ni 114                 0.17        2.60911
             Al 42 -- Ni 13                  0.18        2.60923
            Ni 94  -- Ni 130                 0.04        2.60967
            Ni 101 -- Ni 138                 0.02        2.60987
            Ni 145 -- Ni 184                 0.00        2.60990
            Ni 121 -- Ni 156                 0.02        2.60996
             Al 59 -- Ni 10                  0.17        2.61046
             Al 47 -- Ni 152                 0.16        2.61061
             Al 39 -- Ni 172                 0.16        2.61085
            Ni 34  -- Ni 155                -0.03        2.61095
            Ni 137 -- Ni 138                 0.06        2.61163
             Al 12 -- Ni 31                  0.19        2.61187
             Al 61 -- Ni 80                  0.17        2.61194
            Ni 28  -- Ni 138                -0.04        2.61283
             Al 7  -- Ni 114                 0.15        2.61289
             Al 57 -- Al 58                  0.24        2.61291
            Ni 84  -- Ni 112                 0.05        2.61310
             Al 22 -- Ni 56                  0.16        2.61327
            Ni 170 -- Ni 178                -0.01        2.61351
            Ni 13  -- Ni 15                  0.08        2.61386
            Ni 123 -- Ni 159                 0.03        2.61408
            Ni 126 -- Ni 135                 0.02        2.61410
            Ni 166 -- Ni 168                 0.07        2.61415
             Al 2  -- Ni 104                 0.17        2.61461
             Al 2  -- Ni 174                 0.17        2.61466
            Ni 175 -- Ni 184                 0.05        2.61493
            Ni 23  -- Ni 24                  0.01        2.61584
             Al 21 -- Ni 170                 0.17        2.61637
            Ni 16  -- Ni 30                  0.05        2.61646
             Al 18 -- Ni 34                  0.14        2.61652
            Ni 81  -- Ni 120                -0.06        2.61654
             Al 21 -- Ni 171                 0.15        2.61655
             Al 48 -- Ni 91                  0.13        2.61696
            Ni 31  -- Ni 155                 0.02        2.61712
            Ni 172 -- Ni 181                 0.03        2.61715
             Al 52 -- Al 62                  0.28        2.61715
            Ni 53  -- Ni 92                 -0.06        2.61723
            Ni 83  -- Ni 188                 0.05        2.61727
            Ni 165 -- Ni 181                 0.08        2.61750
             Al 28 -- Ni 68                  0.16        2.61751
             Al 1  -- Ni 58                  0.17        2.61756
            Ni 26  -- Ni 36                  0.00        2.61760
            Ni 67  -- Ni 72                  0.07        2.61790
            Ni 121 -- Ni 147                 0.03        2.61811
             Al 57 -- Ni 118                 0.15        2.61827
             Al 60 -- Ni 4                   0.17        2.61847
            Ni 78  -- Ni 80                  0.04        2.61876
            Ni 130 -- Ni 163                 0.05        2.61878
            Ni 54  -- Ni 92                  0.07        2.61894
            Ni 16  -- Ni 103                -0.05        2.61904
             Al 5  -- Ni 58                  0.19        2.61912
            Ni 19  -- Ni 121                 0.06        2.61920
            Ni 134 -- Ni 143                -0.00        2.61920
            Ni 136 -- Ni 184                 0.05        2.61957
            Ni 90  -- Ni 92                  0.02        2.62005
            Ni 14  -- Ni 24                  0.01        2.62016
             Al 49 -- Ni 148                 0.15        2.62029
            Ni 64  -- Ni 70                  0.10        2.62063
            Ni 43  -- Ni 86                  0.01        2.62070
            Ni 154 -- Ni 155                 0.02        2.62080
             Al 14 -- Ni 174                 0.18        2.62082
            Ni 74  -- Ni 75                  0.05        2.62110
             Al 20 -- Ni 186                 0.16        2.62124
             Al 17 -- Ni 86                  0.18        2.62220
             Al 61 -- Ni 81                  0.18        2.62239
            Ni 77  -- Ni 78                  0.03        2.62255
             Al 66 -- Ni 64                  0.15        2.62300
            Ni 133 -- Ni 137                 0.07        2.62316
            Ni 77  -- Ni 116                 0.10        2.62344
            Ni 35  -- Ni 48                 -0.00        2.62359
            Ni 22  -- Ni 24                  0.06        2.62390
             Al 53 -- Ni 99                  0.14        2.62397
            Ni 119 -- Ni 156                 0.00        2.62423
            Ni 131 -- Ni 135                 0.15        2.62501
             Al 47 -- Al 48                  0.26        2.62512
             Al 23 -- Ni 82                  0.14        2.62649
            Ni 62  -- Ni 169                 0.01        2.62657
            Ni 155 -- Ni 156                 0.07        2.62664
            Ni 22  -- Ni 122                 0.01        2.62682
            Ni 29  -- Ni 30                  0.02        2.62729
            Ni 14  -- Ni 36                 -0.02        2.62745
             Al 34 -- Ni 149                 0.16        2.62847
            Ni 58  -- Ni 95                  0.07        2.62870
            Ni 72  -- Ni 173                -0.00        2.62886
            Ni 112 -- Ni 121                 0.06        2.62898
             Al 18 -- Ni 46                  0.14        2.62928
            Ni 169 -- Ni 170                 0.01        2.62933
            Ni 55  -- Ni 65                  0.03        2.62975
            Ni 57  -- Ni 104                 0.01        2.63040
             Al 26 -- Ni 136                 0.15        2.63101
            Ni 4   -- Ni 104                 0.01        2.63113
             Al 32 -- Al 47                  0.26        2.63150
            Ni 152 -- Ni 154                 0.04        2.63198
            Ni 54  -- Ni 55                  0.10        2.63247
             Al 12 -- Ni 22                  0.17        2.63248
            Ni 161 -- Ni 181                 0.09        2.63256
            Ni 183 -- Ni 184                 0.07        2.63409
            Ni 151 -- Ni 188                -0.02        2.63434
            Ni 114 -- Ni 121                 0.06        2.63444
            Ni 145 -- Ni 180                 0.00        2.63504
            Ni 124 -- Ni 125                -0.00        2.63510
             Al 8  -- Ni 10                  0.18        2.63524
             Al 62 -- Al 63                  0.25        2.63545
            Ni 138 -- Ni 146                 0.00        2.63550
            Ni 83  -- Ni 180                 0.06        2.63661
             Al 43 -- Ni 25                  0.19        2.63664
             Al 9  -- Ni 94                  0.17        2.63683
             Al 38 -- Ni 28                  0.13        2.63735
            Ni 94  -- Ni 95                  0.07        2.63743
             Al 10 -- Ni 138                 0.17        2.63759
             Al 50 -- Ni 114                 0.16        2.63818
            Ni 82  -- Ni 171                 0.05        2.63866
            Ni 57  -- Ni 102                 0.02        2.63951
             Al 35 -- Ni 31                  0.16        2.63990
             Al 9  -- Ni 25                  0.18        2.64056
             Al 53 -- Al 55                  0.22        2.64094
             Al 56 -- Ni 13                  0.18        2.64107
            Ni 9   -- Ni 43                  0.04        2.64172
             Al 38 -- Ni 163                 0.14        2.64222
             Al 12 -- Ni 34                  0.18        2.64350
            Ni 31  -- Ni 35                  0.07        2.64381
             Al 17 -- Ni 155                 0.17        2.64483
            Ni 74  -- Ni 114                 0.04        2.64515
             Al 13 -- Ni 167                 0.15        2.64522
            Ni 96  -- Ni 132                 0.13        2.64681
            Ni 101 -- Ni 103                -0.01        2.64805
            Ni 147 -- Ni 155                 0.09        2.64816
             Al 6  -- Ni 103                 0.16        2.64917
             Al 13 -- Ni 25                  0.18        2.64969
             Al 50 -- Ni 113                 0.15        2.65018
             Al 7  -- Ni 103                 0.13        2.65090
             Al 45 -- Al 58                  0.24        2.65131
             Al 19 -- Ni 81                  0.14        2.65137
             Al 50 -- Ni 110                 0.14        2.65194
             Al 57 -- Ni 116                 0.16        2.65234
             Al 19 -- Ni 54                  0.15        2.65355
             Al 11 -- Ni 147                 0.14        2.65365
            Ni 71  -- Ni 177                 0.04        2.65396
             Al 3  -- Ni 68                  0.14        2.65421
             Al 64 -- Ni 1                   0.14        2.65426
            Ni 140 -- Ni 170                -0.05        2.65506
            Ni 140 -- Ni 179                 0.02        2.65509
             Al 50 -- Al 52                  0.24        2.65516
             Al 64 -- Ni 37                  0.15        2.65517
             Al 5  -- Ni 10                  0.16        2.65529
             Al 12 -- Ni 155                 0.18        2.65559
             Al 45 -- Ni 87                  0.11        2.65637
             Al 65 -- Ni 37                  0.15        2.65645
            Ni 130 -- Ni 167                 0.04        2.65652
            Ni 64  -- Ni 73                  0.06        2.65722
             Al 60 -- Ni 7                   0.15        2.65773
             Al 32 -- Ni 94                  0.16        2.65889
             Al 22 -- Ni 80                  0.16        2.65938
            Ni 25  -- Ni 39                  0.07        2.66003
             Al 13 -- Ni 166                 0.16        2.66109
            Ni 10  -- Ni 24                  0.09        2.66110
             Al 11 -- Ni 138                 0.14        2.66139
            Ni 171 -- Ni 182                 0.05        2.66219
            Ni 31  -- Ni 33                  0.06        2.66251
             Al 32 -- Ni 22                  0.15        2.66284
             Al 29 -- Ni 163                 0.16        2.66425
            Ni 67  -- Ni 113                 0.04        2.66602
            Ni 13  -- Ni 27                  0.06        2.66646
             Al 35 -- Ni 28                  0.12        2.66650
             Al 9  -- Ni 13                  0.17        2.66676
            Ni 25  -- Ni 26                  0.07        2.66683
             Al 15 -- Ni 183                 0.14        2.66771
             Al 24 -- Al 35                  0.22        2.66860
            Ni 57  -- Ni 65                  0.02        2.67102
             Al 65 -- Ni 25                  0.17        2.67122
             Al 50 -- Al 51                  0.23        2.67133
            Ni 151 -- Ni 180                -0.01        2.67143
             Al 43 -- Ni 13                  0.16        2.67181
             Al 49 -- Al 58                  0.22        2.67239
             Al 25 -- Al 66                  0.21        2.67435
            Ni 174 -- Ni 176                 0.08        2.67473
            Ni 4   -- Ni 5                   0.03        2.67784
            Ni 146 -- Ni 175                -0.01        2.67793
            Ni 25  -- Ni 27                  0.05        2.67865
            Ni 175 -- Ni 176                 0.07        2.67903
             Al 23 -- Al 63                  0.22        2.68180
             Al 26 -- Ni 73                  0.14        2.68315
             Al 1  -- Ni 166                 0.13        2.68590
             Al 13 -- Al 18                  0.25        2.68595
            Ni 136 -- Ni 176                 0.08        2.68714
            Ni 147 -- Ni 156                 0.06        2.68732
            Ni 28  -- Ni 42                  0.04        2.68794
             Al 37 -- Al 41                  0.28        2.68825
             Al 4  -- Ni 86                  0.16        2.69044
            Ni 13  -- Ni 14                  0.08        2.69134
            Ni 136 -- Ni 181                 0.08        2.69813
             Al 53 -- Al 66                  0.21        2.69860
            Ni 178 -- Ni 179                 0.01        2.70158
             Al 21 -- Al 26                  0.23        2.70177
             Al 55 -- Ni 90                  0.12        2.70444
             Al 9  -- Al 43                  0.24        2.70551
             Al 33 -- Al 34                  0.21        2.70559
            Ni 2   -- Ni 10                  0.04        2.70817
             Al 45 -- Al 55                  0.24        2.71059
             Al 12 -- Al 32                  0.23        2.71150
             Al 19 -- Al 48                  0.22        2.71704
             Al 25 -- Al 26                  0.20        2.71790
             Al 19 -- Al 22                  0.21        2.71828
             Al 9  -- Ni 167                 0.12        2.72060
             Al 9  -- Al 32                  0.23        2.72112
             Al 7  -- Al 51                  0.21        2.72604
             Al 38 -- Al 65                  0.21        2.72608
             Al 55 -- Ni 88                  0.10        2.72729
             Al 8  -- Al 46                  0.22        2.72820
             Al 5  -- Ni 13                  0.15        2.72886
             Al 20 -- Al 23                  0.20        2.72897
             Al 29 -- Al 39                  0.21        2.72992
             Al 5  -- Al 56                  0.23        2.73109
             Al 17 -- Al 24                  0.20        2.73270
             Al 20 -- Al 33                  0.20        2.73464
             Al 17 -- Al 18                  0.20        2.73986
             Al 2  -- Al 64                  0.22        2.74173
             Al 11 -- Al 51                  0.20        2.74239
             Al 40 -- Ni 136                 0.12        2.74436
             Al 48 -- Al 57                  0.17        2.74474
            Ni 40  -- Ni 42                  0.03        2.74741
             Al 11 -- Al 35                  0.20        2.74961
             Al 40 -- Ni 172                 0.09        2.75277
             Al 38 -- Al 43                  0.21        2.75567
             Al 13 -- Al 65                  0.21        2.75657
             Al 46 -- Al 59                  0.19        2.75689
             Al 19 -- Al 57                  0.18        2.75748
             Al 25 -- Al 28                  0.19        2.75807
             Al 1  -- Al 59                  0.19        2.76447
             Al 30 -- Al 41                  0.16        2.76536
             Al 16 -- Al 18                  0.19        2.76625
             Al 3  -- Al 60                  0.19        2.76813
             Al 61 -- Al 62                  0.19        2.76992
             Al 16 -- Al 24                  0.17        2.77240
             Al 42 -- Al 43                  0.19        2.77570
             Al 1  -- Al 64                  0.20        2.77636
             Al 30 -- Al 31                  0.17        2.77799
             Al 7  -- Al 60                  0.19        2.77915
             Al 42 -- Al 56                  0.18        2.78047
             Al 21 -- Al 36                  0.18        2.78325
             Al 27 -- Al 31                  0.17        2.79010
             Al 53 -- Al 54                  0.16        2.79413
             Al 15 -- Al 24                  0.16        2.79997
             Al 6  -- Al 42                  0.17        2.80159
             Al 29 -- Al 44                  0.17        2.80369
             Al 28 -- Ni 136                 0.11        2.80410
             Al 39 -- Al 40                  0.14        2.80425
             Al 10 -- Al 42                  0.16        2.82561
             Al 10 -- Al 38                  0.16        2.83532
             Al 4  -- Al 46                  0.16        2.84254
             Al 27 -- Al 41                  0.12        2.84265
             Al 4  -- Al 59                  0.16        2.84614
             Al 14 -- Al 38                  0.14        2.84790
             Al 6  -- Al 56                  0.15        2.85400
             Al 21 -- Al 40                  0.13        2.86643
             Al 54 -- Al 66                  0.14        2.86947
             Al 14 -- Al 65                  0.15        2.87363
             Al 15 -- Al 35                  0.14        2.88441
             Al 36 -- Al 40                  0.09        2.93478
             Al 10 -- Al 43                  0.09        2.97040
======================================================================
 

Writing analysis data to castep.castep_bin

Writing model to castep.check
 
 A BibTeX formatted list of references used in this run has been written to 
 castep.bib
 
Initialisation time =     11.91 s
Calculation time    =  15273.06 s
Finalisation time   =      5.74 s
Total time          =  15290.71 s
Peak Memory Use     = 2762740 kB
  
Overall parallel efficiency rating: Good (71%)                                  
  
Data was distributed by:-
G-vector (48-way); efficiency rating: Good (72%)                                
