 +-------------------------------------------------+
 |                                                 |
 |      CCC   AA    SSS  TTTTT  EEEEE  PPPP        |
 |     C     A  A  S       T    E      P   P       |
 |     C     AAAA   SS     T    EEE    PPPP        |
 |     C     A  A     S    T    E      P           |
 |      CCC  A  A  SSS     T    EEEEE  P           |
 |                                                 |
 +-------------------------------------------------+
 |                                                 |
 | Welcome to Academic Release CASTEP version 20.11|          
 | Ab Initio Total Energy Program                  |
 |                                                 |
 | Authors:                                        |
 | M. Segall, M. Probert, C. Pickard, P. Hasnip,   |
 | S. Clark, K. Refson, J. R. Yates, M. Payne      |
 |                                                 |
 | Contributors:                                   |
 | P. Lindan, P. Haynes, J. White, V. Milman,      |
 | N. Govind, M. Gibson, P. Tulip, V. Cocula,      |
 | B. Montanari, D. Quigley, M. Glover,            |
 | L. Bernasconi, A. Perlov, M. Plummer,           |
 | E. McNellis, J. Meyer, J. Gale, D. Jochym       |
 | J. Aarons, B. Walker, R. Gillen, D. Jones       |
 | T. Green, I. J. Bush, C. J. Armstrong,          |
 | E. J. Higgins, E. L. Brown, M. S. McFly,        |
 | J. Wilkins, B-C. Shih, P. J. P. Byrne,          |
 | R. J. Maurer, J. C. Womack, J. Dziedzic,        |
 | J. R. Kermode, A. Bartok-Partay                 |
 |                                                 |
 | Copyright (c) 2000 - 2020                       |
 |                                                 |
 |     Distributed under license from Cambridge    |
 |     Enterprise for academic use only.           |
 |                                                 |
 | Please cite                                     |
 |                                                 |
 |     "First principles methods using CASTEP"     |
 |                                                 |
 |         Zeitschrift fuer Kristallographie       |
 |           220(5-6) pp. 567-570 (2005)           |
 |                                                 |
 | S. J. Clark, M. D. Segall, C. J. Pickard,       |
 | P. J. Hasnip, M. J. Probert, K. Refson,         |
 | M. C. Payne                                     |
 |                                                 |
 |       in all publications arising from          |
 |              your use of CASTEP                 |
 |                                                 |
 +-------------------------------------------------+
 |                                                 |
 |              http://www.castep.org              |
 |                                                 |
 +-------------------------------------------------+
 
 
 
 Compiled for linux_x86_64_ifort on Wed, 25 Aug 2021 18:50:38 +0100
 from code version e772bf432+  HEAD  Sat Apr 3 17:41:32 2021 +0100
 Compiler: Intel Fortran 19.0.5.281; Optimisation: fast
 MATHLIBS: Intel MKL(2019.0.5) (LAPACK version 3.7.0)
 FFT Lib : mkl
 Fundamental constants values: CODATA 2014
 
 Run started: Thu, 09 Mar 2023 02:51:00 +0000
 
 Atomic calculation performed for Al: 1s2 2s2 2p6 3s2 3p1
 
 Converged in 52 iterations to an ae energy of -6606.982 eV
 
   ============================================================                
   | Pseudopotential Report - Date of generation  9-03-2023   |                
   ------------------------------------------------------------                
   | Element: Al Ionic charge:  3.00 Level of theory: RPBE    |                
   | Atomic Solver: Koelling-Harmon                           |                
   |                                                          |                
   |               Reference Electronic Structure             |                
   |         Orbital         Occupation         Energy        |                
   |            3s              2.000           -0.284        |                
   |            3p              1.000           -0.100        |                
   |                                                          |                
   |                 Pseudopotential Definition               |                
   |        Beta     l      e      Rc     scheme   norm       |                
   |          1      0   -0.284   2.192     qc      0         |                
   |          2      0    0.250   2.192     qc      0         |                
   |          3      1   -0.100   2.192     qc      0         |                
   |          4      1    0.250   2.192     qc      0         |                
   |          5      2    0.000   2.000     qc      0         |                
   |          6      2    0.250   2.000     qc      0         |                
   |         loc     3    0.000   2.192     pn      0         |                
   |                                                          |                
   | Augmentation charge Rinner = 1.398                       |                
   | Partial core correction Rc = 1.398                       |                
   ------------------------------------------------------------                
   | "3|2.2|2.2|1.4|4|5|5|30:31:32U2U2"                       |                
   ------------------------------------------------------------                
   |      Author: Chris J. Pickard, Cambridge University      |                
   ============================================================                
 
 Atomic calculation performed for Ni: 1s2 2s2 2p6 3s2 3p6 3d8 4s2
 
 Converged in 109 iterations to an ae energy of -41381.414 eV
 
   ============================================================                
   | Pseudopotential Report - Date of generation  9-03-2023   |                
   ------------------------------------------------------------                
   | Element: Ni Ionic charge: 10.00 Level of theory: RPBE    |                
   | Atomic Solver: Koelling-Harmon                           |                
   |                                                          |                
   |               Reference Electronic Structure             |                
   |         Orbital         Occupation         Energy        |                
   |            3d              8.000           -0.324        |                
   |            4s              2.000           -0.204        |                
   |                                                          |                
   |                 Pseudopotential Definition               |                
   |        Beta     l      e      Rc     scheme   norm       |                
   |          1      0   -0.204   2.401     qc      0         |                
   |          2      0    0.250   2.401     qc      0         |                
   |          3      1    0.000   2.401     qc      0         |                
   |          4      1    0.250   2.401     qc      0         |                
   |          5      2   -0.324   1.999     qc      0         |                
   |          6      2    0.250   1.999     qc      0         |                
   |         loc     3    0.000   2.401     pn      0         |                
   |                                                          |                
   | Augmentation charge Rinner = 1.001                       |                
   | Partial core correction Rc = 1.001                       |                
   ------------------------------------------------------------                
   | "3|2.4|2.4|1.0|8|9|10|40:41:32U2U2(qc=5.5)"              |                
   ------------------------------------------------------------                
   |      Author: Chris J. Pickard, Cambridge University      |                
   ============================================================                
 
 Pseudo atomic calculation performed for Al 3s2 3p1
 
 Converged in 13 iterations to a total energy of -107.6592 eV
 
 Pseudo atomic calculation performed for Ni 3d8 4s2
 
 Converged in 41 iterations to a total energy of -1369.7891 eV
 Calculation parallelised over 48 processes.
 Data is distributed by G-vector(48-way)

 ************************************ Title ************************************
 

 ***************************** General Parameters ******************************
  
 output verbosity                               : normal  (1)
 write checkpoint data to                       : castep.check
 type of calculation                            : geometry optimization
 stress calculation                             : off
 density difference calculation                 : off
 electron localisation func (ELF) calculation   : off
 Hirshfeld analysis                             : off
 molecular orbital projected DOS                : off
 deltaSCF calculation                           : off
 unlimited duration calculation
 timing information                             : on
 memory usage estimate                          : on
 write extra output files                       : on
 write final potential to formatted file        : off
 write final density to formatted file          : off
 write BibTeX reference list                    : on
 write OTFG pseudopotential files               : on
 write electrostatic potential file             : on
 write bands file                               : on
 checkpoint writing                             : both castep_bin and check files
  
 output         length unit                     : A
 output           mass unit                     : amu
 output           time unit                     : ps
 output         charge unit                     : e
 output           spin unit                     : hbar/2
 output         energy unit                     : eV
 output          force unit                     : eV/A
 output       velocity unit                     : A/ps
 output       pressure unit                     : GPa
 output     inv_length unit                     : 1/A
 output      frequency unit                     : cm-1
 output force constant unit                     : eV/A**2
 output         volume unit                     : A**3
 output   IR intensity unit                     : (D/A)**2/amu
 output         dipole unit                     : D
 output         efield unit                     : eV/A/e
 output        entropy unit                     : J/mol/K
 output    efield chi2 unit                     : pm/V
  
 wavefunctions paging                           : none
 random number generator seed                   : randomised (25100873)
 data distribution                              : optimal for this architecture
 optimization strategy                          : maximize speed(+++)

 *********************** Exchange-Correlation Parameters ***********************
  
 using functional                               : revised Perdew Burke Ernzerhof
 relativistic treatment                         : Koelling-Harmon
 DFT+D: Semi-empirical dispersion correction    : off

 ************************* Pseudopotential Parameters **************************
  
 pseudopotential representation                 : reciprocal space
 <beta|phi> representation                      : reciprocal space
 spin-orbit coupling                            : off

 **************************** Basis Set Parameters *****************************
  
 plane wave basis set cut-off                   :   900.0000   eV
 size of standard grid                          :     1.7500
 size of   fine   gmax                          :    26.8966   1/A
 finite basis set correction                    : none

 **************************** Electronic Parameters ****************************
  
 number of  electrons                           :  2109.    
 net charge of system                           :  0.000    
 net spin   of system                           :  1.000    
 number of  up  spins                           :  1055.    
 number of down spins                           :  1054.    
 treating system as spin-polarized
 number of bands                                :       1167

 ********************* Electronic Minimization Parameters **********************
  
 Method: Treating system as metallic with density mixing treatment of electrons,
         and number of  SD  steps               :          1
         and number of  CG  steps               :          4
  
 total energy / atom convergence tol.           : 0.1000E-05   eV
 eigen-energy convergence tolerance             : 0.2185E-06   eV
 max force / atom convergence tol.              : ignored
 convergence tolerance window                   :          3   cycles
 max. number of SCF cycles                      :        200
 number of fixed-spin iterations                :         10
 smearing scheme                                : Gaussian
 smearing width                                 : 0.2000       eV
 Fermi energy convergence tolerance             : 0.2721E-13   eV
 periodic dipole correction                     : NONE
 periodically dump wavefunctions to             : castep.wvfn
 dump wavefunctions every                       :          1   SCF cycles

 ************************** Density Mixing Parameters **************************
  
 density-mixing scheme                          : Pulay
 max. length of mixing history                  :         20
 charge density mixing amplitude                : 0.8000    
   spin density mixing amplitude                :  2.000    
 cut-off energy for mixing                      :  900.0       eV

 *********************** Population Analysis Parameters ************************
  
 Population analysis with cutoff                :  3.000       A
 Population analysis output                     : summary and pdos components

 ********************** Geometry Optimization Parameters ***********************
  
 optimization method                            : LBFGS
 max. no. of LBFGS updates                      : unbounded
 variable cell method                           : fixed basis quality
 max. number of steps                           :         30
 estimated bulk modulus                         :  500.0       GPa
 estimated <frequency>                          :  1668.       cm-1
 geom line minimiser                            : on
 with line minimiser tolerance                  :     0.4000
  with spin fully able to relax for all steps
 total energy convergence tolerance             : 0.2000E-04   eV/atom
        max ionic |force| tolerance             : 0.5000E-01   eV/A
 max ionic |displacement| tolerance             : 0.1000E-02   A
   max |stress component| tolerance             : 0.1000       GPa
 convergence tolerance window                   :          2   steps
 backup results every                           :          5   steps
 write geom trajectory file                     : on

 *******************************************************************************
  
 
                           -------------------------------
                                      Unit Cell
                           -------------------------------
        Real Lattice(A)                      Reciprocal Lattice(1/A)
    14.4648280     0.0000000     0.0000000        0.434376773   0.000000000   0.000000000
     0.0000000    14.4648280     0.0000000        0.000000000   0.434376773   0.000000000
     0.0000000     0.0000000    14.4648280        0.000000000   0.000000000   0.434376773
 
                       Lattice parameters(A)       Cell Angles
                    a =     14.464828          alpha =   90.000000
                    b =     14.464828          beta  =   90.000000
                    c =     14.464828          gamma =   90.000000
 
                       Current cell volume =          3026.494030       A**3
                                   density =             4.285146   AMU/A**3
                                           =             7.115653     g/cm^3
 
                           -------------------------------
                                     Cell Contents
                           -------------------------------
                         Total number of ions in cell =  255
                      Total number of species in cell =    2
                        Max number of any one species =  192
 
            xxxxxxxxxxxxxxxxxxxxxxxxxxxxxxxxxxxxxxxxxxxxxxxxxxxxxxxxxxxx
            x  Element    Atom        Fractional coordinates of atoms  x
            x            Number           u          v          w      x
            x----------------------------------------------------------x
            x  Al           1         0.570121   0.187155   0.189298   x 
            x  Al           2         0.817904   0.188117   0.187712   x 
            x  Al           3         0.570243   0.438864   0.189301   x 
            x  Al           4         0.817702   0.437585   0.187796   x 
            x  Al           5         0.575214   0.688931   0.184213   x 
            x  Al           6         0.819260   0.687292   0.186637   x 
            x  Al           7         0.571301   0.936590   0.188516   x 
            x  Al           8         0.819431   0.938177   0.186799   x 
            x  Al           9         0.569108   0.186046   0.435739   x 
            x  Al          10         0.817364   0.188088   0.437488   x 
            x  Al          11         0.567829   0.440701   0.435181   x 
            x  Al          12         0.817163   0.437766   0.437562   x 
            x  Al          13         0.577606   0.690160   0.437660   x 
            x  Al          14         0.819043   0.687435   0.437639   x 
            x  Al          15         0.573506   0.935363   0.433511   x 
            x  Al          16         0.819368   0.937873   0.437382   x 
            x  Al          17         0.571882   0.185811   0.685969   x 
            x  Al          18         0.816641   0.188658   0.687019   x 
            x  Al          19         0.569686   0.439187   0.686098   x 
            x  Al          20         0.816260   0.437314   0.687110   x 
            x  Al          21         0.574574   0.688234   0.690530   x 
            x  Al          22         0.818809   0.686831   0.688328   x 
            x  Al          23         0.576486   0.936301   0.692670   x 
            x  Al          24         0.819115   0.937990   0.687993   x 
            x  Al          25         0.571363   0.187436   0.938980   x 
            x  Al          26         0.817184   0.188697   0.937833   x 
            x  Al          27         0.569203   0.437954   0.939574   x 
            x  Al          28         0.817222   0.437058   0.937576   x 
            x  Al          29         0.570717   0.687591   0.938214   x 
            x  Al          30         0.819227   0.686781   0.937613   x 
            x  Al          31         0.571807   0.937149   0.937154   x 
            x  Al          32         0.819468   0.938345   0.938123   x 
            x  Al          33         0.328818   0.061010   0.059904   x 
            x  Al          34         0.056522   0.936473   0.932049   x 
            x  Al          35         0.193140   0.068474   0.929781   x 
            x  Al          36         0.321848   0.813906   0.064179   x 
            x  Al          37         0.193035   0.808581   0.929002   x 
            x  Al          38         0.317981   0.569520   0.068530   x 
            x  Al          39         0.073672   0.567353   0.053223   x 
            x  Al          40         0.198496   0.066872   0.696284   x 
            x  Al          41         0.066927   0.684333   0.689771   x 
            x  Al          42         0.325495   0.563493   0.812936   x 
            x  Al          43         0.193150   0.546129   0.687650   x 
            x  Al          44         0.331140   0.307239   0.809559   x 
            x  Al          45         0.327603   0.434727   0.945018   x 
            x  Al          46         0.190777   0.312392   0.680745   x 
            x  Al          47         0.063276   0.314172   0.812905   x 
            x  Al          48         0.318044   0.938556   0.436345   x 
            x  Al          49         0.440340   0.935328   0.568625   x 
            x  Al          50         0.186650   0.932417   0.309943   x 
            x  Al          51         0.068455   0.063399   0.565370   x 
            x  Al          52         0.434163   0.687314   0.559633   x 
            x  Al          53         0.070952   0.823727   0.566112   x 
            x  Al          54         0.201079   0.686560   0.556003   x 
            x  Al          55         0.329772   0.449876   0.432943   x 
            x  Al          56         0.330116   0.308096   0.561146   x 
            x  Al          57         0.185531   0.304060   0.436093   x 
            x  Al          58         0.187406   0.064750   0.182577   x 
            x  Al          59         0.435147   0.688127   0.314601   x 
            x  Al          60         0.191093   0.690097   0.311824   x 
            x  Al          61         0.191228   0.305372   0.179949   x 
            x  Al          62         0.192143   0.306092   0.946777   x 
            x  Al          63         0.184579   0.445124   0.305649   x 
            x  Ni           1         0.567685   0.312343   0.312280   x 
            x  Ni           2         0.693698   0.187425   0.312788   x 
            x  Ni           3         0.693491   0.312933   0.188502   x 
            x  Ni           4         0.817408   0.313221   0.312927   x 
            x  Ni           5         0.942026   0.188363   0.312557   x 
            x  Ni           6         0.942096   0.313079   0.187520   x 
            x  Ni           7         0.566016   0.568098   0.314013   x 
            x  Ni           8         0.692383   0.438850   0.312725   x 
            x  Ni           9         0.694154   0.562622   0.187868   x 
            x  Ni          10         0.818687   0.562277   0.312417   x 
            x  Ni          11         0.942249   0.437636   0.312543   x 
            x  Ni          12         0.942599   0.562139   0.187159   x 
            x  Ni          13         0.568652   0.809734   0.311091   x 
            x  Ni          14         0.696587   0.688204   0.311307   x 
            x  Ni          15         0.696024   0.813245   0.186473   x 
            x  Ni          16         0.820032   0.812833   0.311796   x 
            x  Ni          17         0.942629   0.687193   0.312175   x 
            x  Ni          18         0.943179   0.812478   0.186834   x 
            x  Ni          19         0.568404   0.061685   0.312023   x 
            x  Ni          20         0.695414   0.936901   0.311379   x 
            x  Ni          21         0.694006   0.062453   0.187548   x 
            x  Ni          22         0.818607   0.062901   0.312253   x 
            x  Ni          23         0.942996   0.937987   0.312159   x 
            x  Ni          24         0.942777   0.063464   0.187255   x 
            x  Ni          25         0.449316   0.311752   0.685160   x 
            x  Ni          26         0.691905   0.186959   0.560950   x 
            x  Ni          27         0.691718   0.313380   0.436916   x 
            x  Ni          28         0.816346   0.313139   0.562033   x 
            x  Ni          29         0.941663   0.188467   0.562588   x 
            x  Ni          30         0.941792   0.313113   0.437665   x 
            x  Ni          31         0.565358   0.567453   0.559781   x 
            x  Ni          32         0.690895   0.438661   0.561294   x 
            x  Ni          33         0.694106   0.562958   0.437277   x 
            x  Ni          34         0.817912   0.562139   0.562702   x 
            x  Ni          35         0.941821   0.437566   0.562685   x 
            x  Ni          36         0.942336   0.562326   0.437669   x 
            x  Ni          37         0.567721   0.812499   0.564008   x 
            x  Ni          38         0.695531   0.688519   0.563624   x 
            x  Ni          39         0.696810   0.813215   0.437342   x 
            x  Ni          40         0.819841   0.812779   0.563049   x 
            x  Ni          41         0.942516   0.687099   0.562950   x 
            x  Ni          42         0.942876   0.812436   0.437515   x 
            x  Ni          43         0.568369   0.057884   0.562024   x 
            x  Ni          44         0.694482   0.936550   0.562640   x 
            x  Ni          45         0.694207   0.061773   0.436984   x 
            x  Ni          46         0.818207   0.062892   0.562249   x 
            x  Ni          47         0.942980   0.938001   0.562832   x 
            x  Ni          48         0.942371   0.063293   0.437490   x 
            x  Ni          49         0.567926   0.312945   0.812276   x 
            x  Ni          50         0.692939   0.188287   0.812652   x 
            x  Ni          51         0.691193   0.313032   0.686276   x 
            x  Ni          52         0.816625   0.313112   0.812258   x 
            x  Ni          53         0.941960   0.188785   0.812362   x 
            x  Ni          54         0.941503   0.313166   0.687389   x 
            x  Ni          55         0.567504   0.562707   0.813880   x 
            x  Ni          56         0.691810   0.437553   0.812657   x 
            x  Ni          57         0.692988   0.562326   0.687271   x 
            x  Ni          58         0.817867   0.561476   0.812636   x 
            x  Ni          59         0.941911   0.437323   0.812326   x 
            x  Ni          60         0.942165   0.561897   0.687767   x 
            x  Ni          61         0.570008   0.811813   0.814362   x 
            x  Ni          62         0.695184   0.686870   0.814136   x 
            x  Ni          63         0.696586   0.812287   0.688802   x 
            x  Ni          64         0.819754   0.812277   0.813449   x 
            x  Ni          65         0.942867   0.686812   0.812736   x 
            x  Ni          66         0.942965   0.812430   0.688070   x 
            x  Ni          67         0.570498   0.061950   0.813317   x 
            x  Ni          68         0.696746   0.937634   0.814408   x 
            x  Ni          69         0.695242   0.062678   0.687446   x 
            x  Ni          70         0.818533   0.063904   0.813032   x 
            x  Ni          71         0.942905   0.938168   0.812732   x 
            x  Ni          72         0.942041   0.063610   0.687631   x 
            x  Ni          73         0.567858   0.312932   0.065611   x 
            x  Ni          74         0.692925   0.187736   0.063750   x 
            x  Ni          75         0.691994   0.313112   0.938308   x 
            x  Ni          76         0.817440   0.312889   0.062780   x 
            x  Ni          77         0.942428   0.188558   0.062333   x 
            x  Ni          78         0.941985   0.313047   0.937303   x 
            x  Ni          79         0.568568   0.563607   0.062967   x 
            x  Ni          80         0.692950   0.437665   0.063433   x 
            x  Ni          81         0.693595   0.561825   0.937913   x 
            x  Ni          82         0.818387   0.561766   0.062377   x 
            x  Ni          83         0.942318   0.437388   0.062367   x 
            x  Ni          84         0.942575   0.561727   0.937350   x 
            x  Ni          85         0.569067   0.813239   0.061789   x 
            x  Ni          86         0.695679   0.687596   0.061440   x 
            x  Ni          87         0.695462   0.812518   0.938096   x 
            x  Ni          88         0.819674   0.812901   0.061991   x 
            x  Ni          89         0.942930   0.687023   0.062067   x 
            x  Ni          90         0.943478   0.812492   0.937467   x 
            x  Ni          91         0.567960   0.061255   0.063493   x 
            x  Ni          92         0.694471   0.937947   0.062453   x 
            x  Ni          93         0.694198   0.063144   0.938547   x 
            x  Ni          94         0.818640   0.063474   0.062638   x 
            x  Ni          95         0.943455   0.938164   0.062127   x 
            x  Ni          96         0.942811   0.063843   0.937449   x 
            x  Ni          97         0.069528   0.309545   0.307259   x 
            x  Ni          98         0.191581   0.185504   0.308888   x 
            x  Ni          99         0.064128   0.183978   0.183166   x 
            x  Ni         100         0.311416   0.316226   0.312933   x 
            x  Ni         101         0.442376   0.186097   0.312839   x 
            x  Ni         102         0.316563   0.437490   0.186437   x 
            x  Ni         103         0.319871   0.184955   0.187504   x 
            x  Ni         104         0.063574   0.440226   0.179794   x 
            x  Ni         105         0.063376   0.567223   0.310479   x 
            x  Ni         106         0.314556   0.563848   0.306221   x 
            x  Ni         107         0.444166   0.441823   0.310201   x 
            x  Ni         108         0.445138   0.566689   0.188301   x 
            x  Ni         109         0.188639   0.566704   0.184324   x 
            x  Ni         110         0.065605   0.813037   0.310446   x 
            x  Ni         111         0.317244   0.691619   0.187566   x 
            x  Ni         112         0.190249   0.814743   0.182828   x 
            x  Ni         113         0.314939   0.815054   0.310780   x 
            x  Ni         114         0.318623   0.684367   0.434329   x 
            x  Ni         115         0.444969   0.812382   0.188637   x 
            x  Ni         116         0.065686   0.059372   0.308667   x 
            x  Ni         117         0.316274   0.939301   0.185394   x 
            x  Ni         118         0.066800   0.936832   0.180724   x 
            x  Ni         119         0.314560   0.059006   0.310429   x 
            x  Ni         120         0.443168   0.935402   0.312801   x 
            x  Ni         121         0.444593   0.061202   0.188859   x 
            x  Ni         122         0.193477   0.939516   0.053503   x 
            x  Ni         123         0.064945   0.310021   0.561910   x 
            x  Ni         124         0.193605   0.185869   0.562979   x 
            x  Ni         125         0.063309   0.182783   0.435945   x 
            x  Ni         126         0.447835   0.183634   0.559965   x 
            x  Ni         127         0.442837   0.313827   0.433530   x 
            x  Ni         128         0.319400   0.186147   0.435520   x 
            x  Ni         129         0.071095   0.562153   0.564316   x 
            x  Ni         130         0.196593   0.431441   0.555003   x 
            x  Ni         131         0.190914   0.561034   0.434601   x 
            x  Ni         132         0.065354   0.436944   0.435342   x 
            x  Ni         133         0.317432   0.559530   0.563247   x 
            x  Ni         134         0.566730   0.312488   0.559597   x 
            x  Ni         135         0.446243   0.441319   0.558775   x 
            x  Ni         136         0.067217   0.938937   0.437773   x 
            x  Ni         137         0.069726   0.692398   0.440923   x 
            x  Ni         138         0.316046   0.814516   0.563465   x 
            x  Ni         139         0.443798   0.812529   0.438293   x 
            x  Ni         140         0.191989   0.815095   0.437654   x 
            x  Ni         141         0.195499   0.942116   0.564857   x 
            x  Ni         142         0.191144   0.062737   0.435258   x 
            x  Ni         143         0.318219   0.062779   0.563394   x 
            x  Ni         144         0.443455   0.058327   0.437206   x 
            x  Ni         145         0.064913   0.188067   0.688679   x 
            x  Ni         146         0.450097   0.185432   0.811826   x 
            x  Ni         147         0.322964   0.188859   0.686231   x 
            x  Ni         148         0.066394   0.557515   0.813099   x 
            x  Ni         149         0.064389   0.434839   0.687797   x 
            x  Ni         150         0.198674   0.427213   0.816755   x 
            x  Ni         151         0.446103   0.438003   0.813204   x 
            x  Ni         152         0.445380   0.564150   0.686196   x 
            x  Ni         153         0.322743   0.432740   0.687180   x 
            x  Ni         154         0.065334   0.810756   0.810225   x 
            x  Ni         155         0.193355   0.681365   0.808288   x 
            x  Ni         156         0.192083   0.811465   0.688746   x 
            x  Ni         157         0.318546   0.810436   0.812044   x 
            x  Ni         158         0.445788   0.688205   0.811351   x 
            x  Ni         159         0.444266   0.810441   0.687775   x 
            x  Ni         160         0.316613   0.684290   0.687212   x 
            x  Ni         161         0.065625   0.064744   0.810933   x 
            x  Ni         162         0.191911   0.937963   0.814857   x 
            x  Ni         163         0.068761   0.940946   0.689942   x 
            x  Ni         164         0.320999   0.065113   0.813995   x 
            x  Ni         165         0.446027   0.936326   0.810785   x 
            x  Ni         166         0.445508   0.060973   0.688121   x 
            x  Ni         167         0.318558   0.937986   0.690962   x 
            x  Ni         168         0.065480   0.310012   0.059576   x 
            x  Ni         169         0.194748   0.181336   0.060242   x 
            x  Ni         170         0.194169   0.196229   0.811778   x 
            x  Ni         171         0.063521   0.187267   0.933311   x 
            x  Ni         172         0.320133   0.310664   0.063734   x 
            x  Ni         173         0.447370   0.186940   0.064549   x 
            x  Ni         174         0.447296   0.311595   0.939681   x 
            x  Ni         175         0.323707   0.188033   0.937671   x 
            x  Ni         176         0.066104   0.690558   0.182267   x 
            x  Ni         177         0.193471   0.437810   0.062362   x 
            x  Ni         178         0.199168   0.559502   0.934927   x 
            x  Ni         179         0.065575   0.436364   0.937107   x 
            x  Ni         180         0.441998   0.311953   0.190740   x 
            x  Ni         181         0.443534   0.563493   0.940392   x 
            x  Ni         182         0.445112   0.439152   0.068124   x 
            x  Ni         183         0.068046   0.811597   0.054564   x 
            x  Ni         184         0.194617   0.690986   0.058743   x 
            x  Ni         185         0.066450   0.686567   0.931809   x 
            x  Ni         186         0.445022   0.689788   0.063929   x 
            x  Ni         187         0.444606   0.813071   0.936850   x 
            x  Ni         188         0.320983   0.688322   0.937097   x 
            x  Ni         189         0.066506   0.061320   0.055149   x 
            x  Ni         190         0.320489   0.936784   0.935574   x 
            x  Ni         191         0.446076   0.935840   0.063138   x 
            x  Ni         192         0.446746   0.061184   0.936457   x 
            xxxxxxxxxxxxxxxxxxxxxxxxxxxxxxxxxxxxxxxxxxxxxxxxxxxxxxxxxxxx
 
 
                         No user defined ionic velocities
 
                           -------------------------------
                                   Details of Species
                           -------------------------------
 
                               Mass of species in AMU
                                    Al   26.9815400
                                    Ni   58.6934000
 
                          Electric Quadrupole Moment (Barn)
                                    Al    0.1466000 Isotope 27
                                    Ni    0.1620000 Isotope 61
 
                          Files used for pseudopotentials:
                                    Al 3|2.2|2.2|1.4|4|5|5|30:31:32U2U2
                                    Ni 3|2.4|2.4|1.0|8|9|10|40:41:32U2U2(qc=5.5)
 
                           -------------------------------
                              k-Points For BZ Sampling
                           -------------------------------
                       MP grid size for SCF calculation is  1  1  1
                            with an offset of   0.000  0.000  0.000
                       Number of kpoints used =             1
 
                           -------------------------------
                               Symmetry and Constraints
                           -------------------------------
 
                      Maximum deviation from symmetry =  0.00000         ANG
 
                      Number of symmetry operations   =           1
                      Number of ionic constraints     =           3
                      Point group of crystal =     1: C1, 1, 1
                      Space group of crystal =     1: P1, P 1
 
             Set iprint > 1 for details on symmetry rotations/translations
 
                         Centre of mass is constrained
             Set iprint > 1 for details of linear ionic constraints
 
                         Number of cell constraints= 6
                         Cell constraints are:  0 0 0 0 0 0
 
                         External pressure/stress (GPa)
                          0.00000   0.00000   0.00000
                                    0.00000   0.00000
                                              0.00000
  
+---------------- MEMORY AND SCRATCH DISK ESTIMATES PER PROCESS --------------+
|                                                     Memory          Disk    |
| Baseline code, static data and system overhead      622.0 MB         0.0 MB |
| BLAS internal memory storage                          0.0 MB         0.0 MB |
| Model and support data                              741.5 MB         0.0 MB |
| Electronic energy minimisation requirements         236.0 MB         0.0 MB |
| Force calculation requirements                        7.9 MB         0.0 MB |
|                                               ----------------------------- |
| Approx. total storage required per process         1599.5 MB         0.0 MB |
|                                                                             |
| Requirements will fluctuate during execution and may exceed these estimates |
+-----------------------------------------------------------------------------+
Calculating total energy with cut-off of  900.000 eV.
------------------------------------------------------------------------ <-- SCF
SCF loop      Energy           Fermi           Energy gain       Timer   <-- SCF
                               energy          per atom          (sec)   <-- SCF
------------------------------------------------------------------------ <-- SCF
Initial  -2.19196940E+005  0.00000000E+000                        20.21  <-- SCF
      1  -2.63700348E+005  7.08677376E+000   1.74523169E+002     106.01  <-- SCF
      2  -2.70652045E+005  3.63995353E+000   2.72615567E+001     187.45  <-- SCF
      3  -2.71370335E+005  3.53550930E+000   2.81682119E+000     274.19  <-- SCF
      4  -2.71426812E+005  3.64926874E+000   2.21477616E-001     353.72  <-- SCF
      5  -2.71711263E+005  6.62696240E+000   1.11549377E+000     450.07  <-- SCF
      6  -2.71508238E+005  5.53070910E+000  -7.96174349E-001     559.79  <-- SCF
      7  -2.71402525E+005  4.53269500E+000  -4.14561607E-001     662.63  <-- SCF
      8  -2.71386624E+005  4.41104970E+000  -6.23553600E-002     769.01  <-- SCF
      9  -2.71400275E+005  4.49354435E+000   5.35332680E-002     867.82  <-- SCF
     10  -2.71395404E+005  4.44299821E+000  -1.91040427E-002     968.61  <-- SCF
     11  -2.72260034E+005  6.15437636E+000   3.39070670E+000    1072.31  <-- SCF
     12  -2.72272100E+005  6.10830837E+000   4.73170589E-002    1159.28  <-- SCF
     13  -2.71464164E+005  4.77486380E+000  -3.16837490E+000    1289.11  <-- SCF
     14  -2.71543311E+005  4.78985186E+000   3.10379914E-001    1369.52  <-- SCF
     15  -2.71419265E+005  4.29498741E+000  -4.86454715E-001    1474.36  <-- SCF
     16  -2.71393334E+005  4.21897707E+000  -1.01692086E-001    1568.19  <-- SCF
     17  -2.71390301E+005  4.29165717E+000  -1.18918124E-002    1663.46  <-- SCF
     18  -2.71388263E+005  4.35439067E+000  -7.99178371E-003    1757.86  <-- SCF
     19  -2.71386736E+005  4.37280696E+000  -5.98786132E-003    1851.63  <-- SCF
     20  -2.71385951E+005  4.36270938E+000  -3.08009763E-003    1945.84  <-- SCF
     21  -2.71385739E+005  4.35202161E+000  -8.31975325E-004    2039.14  <-- SCF
     22  -2.71385637E+005  4.34945042E+000  -4.00357279E-004    2135.03  <-- SCF
     23  -2.71385544E+005  4.35844535E+000  -3.62890670E-004    2228.83  <-- SCF
     24  -2.71385479E+005  4.36296016E+000  -2.55997613E-004    2322.57  <-- SCF
     25  -2.71385420E+005  4.36578621E+000  -2.31898391E-004    2417.13  <-- SCF
     26  -2.71385291E+005  4.37209276E+000  -5.03587514E-004    2511.85  <-- SCF
     27  -2.71385267E+005  4.37338691E+000  -9.51075501E-005    2609.57  <-- SCF
     28  -2.71385256E+005  4.37573053E+000  -4.39626833E-005    2706.27  <-- SCF
     29  -2.71385243E+005  4.37742863E+000  -4.94412906E-005    2801.38  <-- SCF
     30  -2.71385243E+005  4.37754444E+000  -7.64255755E-007    2870.61  <-- SCF
     31  -2.71385243E+005  4.37826483E+000   4.28460190E-007    2946.22  <-- SCF
------------------------------------------------------------------------ <-- SCF
 
Integrated Spin Density     =    0.162050     hbar/2                        
Integrated |Spin Density|   =    0.255246     hbar/2                        
 
Final energy, E             =  -271380.6892113     eV
Final free energy (E-TS)    =  -271385.2431662     eV
(energies not corrected for finite basis set)
 
NB est. 0K energy (E-0.5TS)      =  -271382.9661888     eV
 

Writing analysis data to castep.castep_bin

Writing model to castep.check
 
+---------------- MEMORY AND SCRATCH DISK ESTIMATES PER PROCESS --------------+
|                                                     Memory          Disk    |
| Model and support data                              750.6 MB         0.0 MB |
| Electronic energy minimisation requirements         236.0 MB         0.0 MB |
| Geometry minimisation requirements                  309.4 MB         0.0 MB |
|                                               ----------------------------- |
| Approx. total storage required per process         1296.0 MB         0.0 MB |
|                                                                             |
| Requirements will fluctuate during execution and may exceed these estimates |
+-----------------------------------------------------------------------------+
 
 
 ************************************** Forces **************************************
 *                                                                                  *
 *                           Cartesian components (eV/A)                            *
 * -------------------------------------------------------------------------------- *
 *                         x                    y                    z              *
 *                                                                                  *
 * Al              1     -0.11287              0.00331             -0.02210         *
 * Al              2      0.03245             -0.03619             -0.01110         *
 * Al              3     -0.06247             -0.01120             -0.02454         *
 * Al              4      0.05731              0.00412              0.01230         *
 * Al              5     -0.12296             -0.03591             -0.10401         *
 * Al              6      0.10140              0.01815              0.01164         *
 * Al              7     -0.15432              0.04507             -0.02628         *
 * Al              8      0.06180              0.01671             -0.02510         *
 * Al              9     -0.04550             -0.00719              0.00015         *
 * Al             10      0.03938              0.01773             -0.02233         *
 * Al             11     -0.15071              0.00681             -0.01216         *
 * Al             12      0.10885             -0.00058             -0.01451         *
 * Al             13      0.30943              0.02072             -0.00924         *
 * Al             14      0.05946             -0.04073             -0.03792         *
 * Al             15     -0.00569              0.04095             -0.12631         *
 * Al             16      0.07944              0.01669             -0.02627         *
 * Al             17     -0.16787             -0.02441              0.00400         *
 * Al             18      0.04959              0.01484              0.00052         *
 * Al             19     -0.10666             -0.02007              0.04382         *
 * Al             20      0.06709              0.01676             -0.01805         *
 * Al             21     -0.06676             -0.01440              0.09513         *
 * Al             22      0.10917             -0.01280             -0.00523         *
 * Al             23      0.02094              0.02340              0.13458         *
 * Al             24      0.02615             -0.00692             -0.01621         *
 * Al             25     -0.11204             -0.06363             -0.00670         *
 * Al             26     -0.00162             -0.01901              0.01189         *
 * Al             27     -0.11934              0.01240              0.01082         *
 * Al             28      0.06668              0.03021             -0.00621         *
 * Al             29     -0.15254              0.04832              0.01464         *
 * Al             30      0.04282             -0.00598              0.01282         *
 * Al             31     -0.18012              0.01634              0.01542         *
 * Al             32      0.08768             -0.02917              0.03139         *
 * Al             33      0.13133              0.11068              0.12053         *
 * Al             34      0.28586              0.19004              0.28219         *
 * Al             35     -0.03116              0.00211             -0.08239         *
 * Al             36      0.15514              0.05336              0.20473         *
 * Al             37     -0.04559             -0.29467             -0.05519         *
 * Al             38      0.05110              0.07167              0.16454         *
 * Al             39     -0.51341             -0.29370              0.55074         *
 * Al             40      0.13672             -0.18773             -0.03059         *
 * Al             41     -0.75306             -0.01908              0.60595         *
 * Al             42      0.19940              0.29437             -0.05836         *
 * Al             43     -0.00334             -0.13360             -0.11224         *
 * Al             44      0.14365             -0.19649             -0.18926         *
 * Al             45     -0.04591              0.01725              0.17279         *
 * Al             46     -0.16004              0.07390             -0.11959         *
 * Al             47     -0.65151             -0.08343              0.02692         *
 * Al             48     -0.24175             -0.05497             -0.02349         *
 * Al             49      0.00834              0.20233              0.16743         *
 * Al             50     -0.31446              0.05666             -0.05759         *
 * Al             51     -0.53824             -0.06441             -0.66682         *
 * Al             52     -0.07594             -0.09998              0.13104         *
 * Al             53     -0.60377             -0.01403             -0.65188         *
 * Al             54      0.09011             -0.08112             -0.19301         *
 * Al             55      0.08836              0.38792              0.00625         *
 * Al             56      0.28816             -0.08210             -0.01961         *
 * Al             57     -0.26508             -0.20651             -0.10513         *
 * Al             58     -0.09937              0.02562              0.13671         *
 * Al             59      0.02150             -0.08309             -0.22759         *
 * Al             60     -0.19512             -0.03137             -0.11328         *
 * Al             61      0.00934              0.02836             -0.00458         *
 * Al             62     -0.16340             -0.02163              0.25612         *
 * Al             63     -0.14254              0.17346             -0.09318         *
 * Ni              1      0.00570              0.05316             -0.06879         *
 * Ni              2      0.00918             -0.01347              0.00426         *
 * Ni              3      0.03516              0.01727             -0.00455         *
 * Ni              4      0.09626             -0.01171             -0.01497         *
 * Ni              5      0.15872             -0.07469             -0.06550         *
 * Ni              6      0.09320              0.02263             -0.08259         *
 * Ni              7      0.16840              0.12137              0.02548         *
 * Ni              8      0.04315             -0.01518              0.01736         *
 * Ni              9      0.04630              0.01363             -0.03506         *
 * Ni             10      0.02545              0.00771              0.02893         *
 * Ni             11      0.29158             -0.06306             -0.08638         *
 * Ni             12      0.11735              0.13320             -0.08017         *
 * Ni             13      0.11480             -0.11576              0.17532         *
 * Ni             14     -0.06727             -0.01060              0.02269         *
 * Ni             15     -0.07545             -0.02916              0.02824         *
 * Ni             16     -0.01556              0.01415             -0.01772         *
 * Ni             17      0.10761              0.16429              0.02084         *
 * Ni             18      0.11721              0.00126             -0.14928         *
 * Ni             19      0.00891             -0.02019              0.09670         *
 * Ni             20      0.05732              0.00368              0.00322         *
 * Ni             21     -0.00194             -0.00268             -0.00825         *
 * Ni             22      0.02122              0.00530             -0.01981         *
 * Ni             23      0.19945             -0.02489             -0.04387         *
 * Ni             24      0.06116             -0.16352             -0.12867         *
 * Ni             25      0.14461             -0.01522              0.04991         *
 * Ni             26      0.10675              0.04786              0.00495         *
 * Ni             27      0.04199             -0.02423             -0.00736         *
 * Ni             28      0.03028              0.02032             -0.04752         *
 * Ni             29      0.12705              0.05338              0.00204         *
 * Ni             30      0.19139             -0.09312             -0.11721         *
 * Ni             31      0.21307              0.20865             -0.05024         *
 * Ni             32      0.03406             -0.03095             -0.00589         *
 * Ni             33     -0.14587              0.03871             -0.00232         *
 * Ni             34     -0.00297             -0.06572             -0.02579         *
 * Ni             35      0.19447             -0.00881              0.00247         *
 * Ni             36      0.25033              0.11240              0.07156         *
 * Ni             37      0.22275             -0.00730             -0.06446         *
 * Ni             38      0.02342             -0.03105             -0.01793         *
 * Ni             39     -0.08255              0.00571              0.01687         *
 * Ni             40     -0.01034             -0.03308             -0.02214         *
 * Ni             41      0.40069              0.01692             -0.03337         *
 * Ni             42      0.23166              0.06981             -0.04996         *
 * Ni             43      0.10636             -0.13338              0.00024         *
 * Ni             44      0.09905             -0.00179             -0.00778         *
 * Ni             45     -0.03061             -0.01505              0.02334         *
 * Ni             46      0.01873              0.06586             -0.00956         *
 * Ni             47     -0.06648              0.12352              0.09773         *
 * Ni             48     -0.01329             -0.16290             -0.10187         *
 * Ni             49      0.14340             -0.05261              0.05838         *
 * Ni             50      0.03592             -0.02226              0.00027         *
 * Ni             51      0.04421              0.00374             -0.00023         *
 * Ni             52      0.06795             -0.01141              0.00647         *
 * Ni             53     -0.05855             -0.24168             -0.07969         *
 * Ni             54     -0.12133             -0.05990             -0.21472         *
 * Ni             55      0.12359              0.05571             -0.11892         *
 * Ni             56      0.02802              0.03041             -0.01619         *
 * Ni             57      0.02393              0.00711              0.02864         *
 * Ni             58     -0.01985              0.02558             -0.02649         *
 * Ni             59     -0.05402              0.18296             -0.00411         *
 * Ni             60      0.10499             -0.14972             -0.04040         *
 * Ni             61      0.09386              0.05293             -0.15369         *
 * Ni             62      0.00353             -0.01649              0.00347         *
 * Ni             63     -0.10045             -0.00791             -0.04284         *
 * Ni             64     -0.03397              0.01370              0.01521         *
 * Ni             65      0.01032             -0.10298              0.08129         *
 * Ni             66      0.15011              0.02867             -0.04401         *
 * Ni             67      0.09762             -0.06578             -0.11201         *
 * Ni             68      0.00694              0.00085             -0.00270         *
 * Ni             69     -0.03434             -0.01916             -0.02229         *
 * Ni             70     -0.00018             -0.03368             -0.00288         *
 * Ni             71     -0.20569              0.02450             -0.48977         *
 * Ni             72     -0.04216             -0.05594              0.11031         *
 * Ni             73      0.11430              0.00526              0.04597         *
 * Ni             74      0.03425              0.00412             -0.00139         *
 * Ni             75      0.05013             -0.00637              0.00225         *
 * Ni             76     -0.00108             -0.02950              0.04480         *
 * Ni             77      0.06963             -0.09659             -0.12130         *
 * Ni             78     -0.15142             -0.00184              0.18667         *
 * Ni             79      0.12633             -0.05665              0.11576         *
 * Ni             80      0.02855              0.02882              0.01734         *
 * Ni             81      0.00554              0.02336             -0.00340         *
 * Ni             82     -0.00203             -0.01329             -0.00638         *
 * Ni             83      0.00109             -0.05026             -0.17071         *
 * Ni             84     -0.05577             -0.01613             -0.15021         *
 * Ni             85      0.13632             -0.00646              0.04169         *
 * Ni             86      0.00184              0.00018             -0.00320         *
 * Ni             87     -0.01324             -0.01336             -0.00131         *
 * Ni             88     -0.05493              0.02661              0.02346         *
 * Ni             89      0.10244              0.13909             -0.17502         *
 * Ni             90     -0.24082             -0.35470             -0.15234         *
 * Ni             91      0.14009              0.05993             -0.00963         *
 * Ni             92      0.01713             -0.03505              0.01144         *
 * Ni             93     -0.00437             -0.00382             -0.02564         *
 * Ni             94      0.01272              0.01686              0.01652         *
 * Ni             95     -0.09909             -0.09103              0.09834         *
 * Ni             96     -0.32642              0.23159             -0.12245         *
 * Ni             97     -0.16635              0.35363              0.12212         *
 * Ni             98      0.02829             -0.14579              0.17931         *
 * Ni             99      0.04941              0.30821              0.16646         *
 * Ni            100      0.08869              0.05387              0.17348         *
 * Ni            101     -0.22417              0.00523             -0.03336         *
 * Ni            102      0.03271             -0.09785              0.16201         *
 * Ni            103      0.08688             -0.03310              0.01460         *
 * Ni            104      0.20665             -0.28162              0.48858         *
 * Ni            105      0.06796             -0.20385              0.09396         *
 * Ni            106      0.22310             -0.21379              0.02021         *
 * Ni            107     -0.11753             -0.09985             -0.21769         *
 * Ni            108     -0.06743             -0.03780              0.18674         *
 * Ni            109      0.05087             -0.01229             -0.00461         *
 * Ni            110     -0.13662             -0.14671              0.15154         *
 * Ni            111     -0.21185             -0.00208             -0.10060         *
 * Ni            112      0.02601             -0.13395             -0.04575         *
 * Ni            113      0.29578              0.13981              0.05618         *
 * Ni            114     -0.34061              0.09334              0.00074         *
 * Ni            115     -0.08515              0.03954              0.12104         *
 * Ni            116      0.10581              0.25950              0.17286         *
 * Ni            117      0.06446              0.04528              0.12354         *
 * Ni            118      0.12490              0.02365              0.13172         *
 * Ni            119      0.16604              0.09174              0.02801         *
 * Ni            120     -0.03502              0.04820             -0.26886         *
 * Ni            121     -0.10198             -0.08869              0.24874         *
 * Ni            122     -0.17632             -0.04696              0.15018         *
 * Ni            123     -0.02707              0.17246             -0.14857         *
 * Ni            124      0.08419              0.04152             -0.04311         *
 * Ni            125      0.18009              0.28283             -0.07729         *
 * Ni            126     -0.24165             -0.12638              0.11084         *
 * Ni            127     -0.09883              0.04194             -0.09665         *
 * Ni            128     -0.20657             -0.06306             -0.02370         *
 * Ni            129      0.01749              0.16020             -0.13966         *
 * Ni            130     -0.00248             -0.22912             -0.10493         *
 * Ni            131      0.03170             -0.02468              0.06826         *
 * Ni            132      0.18388             -0.04186              0.03993         *
 * Ni            133      0.08207             -0.06573              0.06831         *
 * Ni            134      0.12547              0.06318             -0.08974         *
 * Ni            135     -0.18974             -0.01888              0.36224         *
 * Ni            136     -0.16917              0.06861             -0.13740         *
 * Ni            137     -0.36529             -0.33291             -0.01401         *
 * Ni            138      0.14221              0.09190              0.00769         *
 * Ni            139     -0.13396             -0.12305             -0.08812         *
 * Ni            140      0.10278             -0.00953             -0.01401         *
 * Ni            141     -0.12043              0.06941              0.20857         *
 * Ni            142      0.16431              0.01292             -0.11555         *
 * Ni            143      0.31383              0.14936             -0.24327         *
 * Ni            144     -0.09105             -0.03918              0.05277         *
 * Ni            145      0.16035              0.05118             -0.11476         *
 * Ni            146     -0.32007             -0.11222              0.10953         *
 * Ni            147      0.00787             -0.01293              0.08377         *
 * Ni            148      0.25309              0.09961             -0.03841         *
 * Ni            149      0.16876             -0.05670             -0.16976         *
 * Ni            150      0.00356             -0.10775              0.23763         *
 * Ni            151     -0.33425             -0.03771              0.01226         *
 * Ni            152      0.01149             -0.05384             -0.21549         *
 * Ni            153      0.01791              0.14555             -0.15042         *
 * Ni            154      0.17760              0.23975              0.03829         *
 * Ni            155      0.00726             -0.11667              0.04762         *
 * Ni            156     -0.04510             -0.14008             -0.27520         *
 * Ni            157      0.25147              0.06513             -0.22690         *
 * Ni            158     -0.19143              0.11863              0.23652         *
 * Ni            159     -0.15868             -0.01211              0.12935         *
 * Ni            160     -0.19662              0.20791              0.24644         *
 * Ni            161     -0.05206              0.08287              0.11329         *
 * Ni            162     -0.00529             -0.12960              0.09160         *
 * Ni            163     -0.01192              0.09020              0.25547         *
 * Ni            164      0.29779             -0.12244             -0.05949         *
 * Ni            165     -0.31746              0.05429              0.16450         *
 * Ni            166     -0.11031             -0.00779             -0.01173         *
 * Ni            167     -0.06666             -0.13732              0.12163         *
 * Ni            168     -0.19181              0.16686              0.24467         *
 * Ni            169     -0.01984             -0.12831             -0.04634         *
 * Ni            170      0.04354              0.29978             -0.02598         *
 * Ni            171      0.26492              0.12273              0.30185         *
 * Ni            172      0.27577             -0.15996              0.02017         *
 * Ni            173     -0.29047              0.28034             -0.07488         *
 * Ni            174     -0.07009              0.00353              0.09658         *
 * Ni            175      0.02089             -0.05163             -0.00354         *
 * Ni            176      0.04524             -0.06798              0.24328         *
 * Ni            177      0.07070             -0.02836             -0.18054         *
 * Ni            178      0.08268              0.08388             -0.23419         *
 * Ni            179      0.33225             -0.08794              0.03107         *
 * Ni            180     -0.04871              0.05217             -0.11374         *
 * Ni            181     -0.10741             -0.08860             -0.00290         *
 * Ni            182     -0.17322             -0.16901             -0.12596         *
 * Ni            183      0.04541              0.11808              0.35180         *
 * Ni            184     -0.13732              0.15334              0.01026         *
 * Ni            185      0.16089             -0.04498              0.01085         *
 * Ni            186     -0.01573             -0.08527             -0.16193         *
 * Ni            187     -0.07184             -0.09854             -0.18522         *
 * Ni            188      0.05403              0.19279             -0.07407         *
 * Ni            189     -0.08412              0.11800              0.27617         *
 * Ni            190      0.12965             -0.02178             -0.21521         *
 * Ni            191     -0.05538              0.03555             -0.10810         *
 * Ni            192      0.07545              0.03490             -0.18808         *
 *                                                                                  *
 ************************************************************************************
 LBFGS: finished iteration     0 with enthalpy= -2.71385243E+005 eV
  
 +-----------+-----------------+-----------------+------------+-----+ <-- LBFGS
 | Parameter |      value      |    tolerance    |    units   | OK? | <-- LBFGS
 +-----------+-----------------+-----------------+------------+-----+ <-- LBFGS
 |  dE/ion   |   0.000000E+000 |   2.000000E-005 |         eV | No  | <-- LBFGS
 |  |F|max   |   9.667662E-001 |   5.000000E-002 |       eV/A | No  | <-- LBFGS
 |  |dR|max  |   0.000000E+000 |   1.000000E-003 |          A | No  | <-- LBFGS
 +-----------+-----------------+-----------------+------------+-----+ <-- LBFGS
  

================================================================================
 Starting LBFGS iteration          1 ...
================================================================================
  
 +------------+-------------+-------------+-----------------+ <-- min LBFGS
 |    Step    |   lambda    |   F.delta'  |    enthalpy     | <-- min LBFGS
 +------------+-------------+-------------+-----------------+ <-- min LBFGS
 |  previous  |    0.000000 |    2.064554 |  -271385.243166 | <-- min LBFGS
 +------------+-------------+-------------+-----------------+ <-- min LBFGS
  

--------------------------------------------------------------------------------
 LBFGS: starting iteration         1 with trial guess (lambda=  1.000000)
--------------------------------------------------------------------------------
 
                           -------------------------------
                                     Cell Contents
                           -------------------------------
 
            xxxxxxxxxxxxxxxxxxxxxxxxxxxxxxxxxxxxxxxxxxxxxxxxxxxxxxxxxxxxxxxxx
            x  Element         Atom        Fractional coordinates of atoms  x
            x                 Number           u          v          w      x
            x---------------------------------------------------------------x
            x  Al                1         0.570106   0.187156   0.189295   x
            x  Al                2         0.817908   0.188112   0.187710   x
            x  Al                3         0.570235   0.438862   0.189298   x
            x  Al                4         0.817710   0.437586   0.187798   x
            x  Al                5         0.575197   0.688926   0.184199   x
            x  Al                6         0.819273   0.687295   0.186638   x
            x  Al                7         0.571280   0.936596   0.188512   x
            x  Al                8         0.819440   0.938180   0.186796   x
            x  Al                9         0.569102   0.186045   0.435739   x
            x  Al               10         0.817369   0.188090   0.437485   x
            x  Al               11         0.567809   0.440702   0.435179   x
            x  Al               12         0.817178   0.437766   0.437560   x
            x  Al               13         0.577648   0.690163   0.437659   x
            x  Al               14         0.819051   0.687430   0.437634   x
            x  Al               15         0.573506   0.935368   0.433494   x
            x  Al               16         0.819378   0.937876   0.437379   x
            x  Al               17         0.571860   0.185807   0.685969   x
            x  Al               18         0.816647   0.188660   0.687019   x
            x  Al               19         0.569672   0.439185   0.686104   x
            x  Al               20         0.816269   0.437316   0.687107   x
            x  Al               21         0.574565   0.688232   0.690543   x
            x  Al               22         0.818824   0.686830   0.688327   x
            x  Al               23         0.576489   0.936304   0.692688   x
            x  Al               24         0.819118   0.937989   0.687991   x
            x  Al               25         0.571348   0.187428   0.938979   x
            x  Al               26         0.817184   0.188695   0.937835   x
            x  Al               27         0.569187   0.437956   0.939576   x
            x  Al               28         0.817231   0.437062   0.937575   x
            x  Al               29         0.570697   0.687598   0.938216   x
            x  Al               30         0.819233   0.686780   0.937615   x
            x  Al               31         0.571783   0.937152   0.937157   x
            x  Al               32         0.819480   0.938341   0.938128   x
            x  Al               33         0.328835   0.061025   0.059920   x
            x  Al               34         0.056560   0.936498   0.932086   x
            x  Al               35         0.193136   0.068474   0.929770   x
            x  Al               36         0.321869   0.813913   0.064206   x
            x  Al               37         0.193029   0.808541   0.928995   x
            x  Al               38         0.317988   0.569530   0.068551   x
            x  Al               39         0.073604   0.567314   0.053296   x
            x  Al               40         0.198514   0.066847   0.696280   x
            x  Al               41         0.066827   0.684331   0.689851   x
            x  Al               42         0.325522   0.563532   0.812929   x
            x  Al               43         0.193149   0.546111   0.687635   x
            x  Al               44         0.331159   0.307213   0.809534   x
            x  Al               45         0.327597   0.434729   0.945041   x
            x  Al               46         0.190756   0.312402   0.680729   x
            x  Al               47         0.063190   0.314161   0.812909   x
            x  Al               48         0.318011   0.938548   0.436342   x
            x  Al               49         0.440341   0.935355   0.568648   x
            x  Al               50         0.186608   0.932425   0.309935   x
            x  Al               51         0.068383   0.063391   0.565281   x
            x  Al               52         0.434153   0.687300   0.559650   x
            x  Al               53         0.070872   0.823725   0.566026   x
            x  Al               54         0.201091   0.686549   0.555977   x
            x  Al               55         0.329783   0.449927   0.432944   x
            x  Al               56         0.330154   0.308085   0.561143   x
            x  Al               57         0.185496   0.304033   0.436079   x
            x  Al               58         0.187393   0.064753   0.182595   x
            x  Al               59         0.435150   0.688116   0.314571   x
            x  Al               60         0.191067   0.690092   0.311809   x
            x  Al               61         0.191229   0.305376   0.179948   x
            x  Al               62         0.192121   0.306089   0.946811   x
            x  Al               63         0.184560   0.445147   0.305637   x
            x  Ni                1         0.567686   0.312350   0.312271   x
            x  Ni                2         0.693700   0.187424   0.312788   x
            x  Ni                3         0.693496   0.312935   0.188502   x
            x  Ni                4         0.817421   0.313219   0.312925   x
            x  Ni                5         0.942047   0.188353   0.312548   x
            x  Ni                6         0.942108   0.313082   0.187509   x
            x  Ni                7         0.566038   0.568114   0.314016   x
            x  Ni                8         0.692389   0.438848   0.312727   x
            x  Ni                9         0.694160   0.562624   0.187864   x
            x  Ni               10         0.818690   0.562278   0.312421   x
            x  Ni               11         0.942288   0.437628   0.312532   x
            x  Ni               12         0.942615   0.562157   0.187149   x
            x  Ni               13         0.568667   0.809719   0.311114   x
            x  Ni               14         0.696578   0.688203   0.311310   x
            x  Ni               15         0.696014   0.813241   0.186477   x
            x  Ni               16         0.820030   0.812835   0.311794   x
            x  Ni               17         0.942643   0.687215   0.312178   x
            x  Ni               18         0.943194   0.812478   0.186814   x
            x  Ni               19         0.568405   0.061683   0.312035   x
            x  Ni               20         0.695422   0.936902   0.311379   x
            x  Ni               21         0.694006   0.062453   0.187547   x
            x  Ni               22         0.818610   0.062902   0.312250   x
            x  Ni               23         0.943022   0.937984   0.312153   x
            x  Ni               24         0.942785   0.063442   0.187238   x
            x  Ni               25         0.449336   0.311750   0.685167   x
            x  Ni               26         0.691919   0.186965   0.560950   x
            x  Ni               27         0.691724   0.313377   0.436915   x
            x  Ni               28         0.816350   0.313141   0.562027   x
            x  Ni               29         0.941680   0.188474   0.562588   x
            x  Ni               30         0.941817   0.313101   0.437650   x
            x  Ni               31         0.565386   0.567481   0.559774   x
            x  Ni               32         0.690899   0.438656   0.561293   x
            x  Ni               33         0.694087   0.562963   0.437277   x
            x  Ni               34         0.817911   0.562131   0.562699   x
            x  Ni               35         0.941846   0.437565   0.562686   x
            x  Ni               36         0.942370   0.562341   0.437678   x
            x  Ni               37         0.567751   0.812498   0.563999   x
            x  Ni               38         0.695534   0.688515   0.563622   x
            x  Ni               39         0.696799   0.813216   0.437345   x
            x  Ni               40         0.819840   0.812775   0.563046   x
            x  Ni               41         0.942570   0.687101   0.562946   x
            x  Ni               42         0.942907   0.812445   0.437509   x
            x  Ni               43         0.568383   0.057866   0.562024   x
            x  Ni               44         0.694495   0.936550   0.562639   x
            x  Ni               45         0.694203   0.061771   0.436987   x
            x  Ni               46         0.818210   0.062901   0.562248   x
            x  Ni               47         0.942971   0.938017   0.562845   x
            x  Ni               48         0.942369   0.063271   0.437477   x
            x  Ni               49         0.567945   0.312938   0.812283   x
            x  Ni               50         0.692944   0.188284   0.812652   x
            x  Ni               51         0.691199   0.313032   0.686276   x
            x  Ni               52         0.816634   0.313110   0.812259   x
            x  Ni               53         0.941952   0.188753   0.812351   x
            x  Ni               54         0.941487   0.313158   0.687361   x
            x  Ni               55         0.567521   0.562714   0.813865   x
            x  Ni               56         0.691813   0.437557   0.812655   x
            x  Ni               57         0.692991   0.562327   0.687275   x
            x  Ni               58         0.817864   0.561480   0.812632   x
            x  Ni               59         0.941904   0.437348   0.812326   x
            x  Ni               60         0.942178   0.561877   0.687762   x
            x  Ni               61         0.570020   0.811820   0.814342   x
            x  Ni               62         0.695185   0.686867   0.814137   x
            x  Ni               63         0.696573   0.812286   0.688796   x
            x  Ni               64         0.819749   0.812279   0.813451   x
            x  Ni               65         0.942869   0.686798   0.812747   x
            x  Ni               66         0.942985   0.812433   0.688064   x
            x  Ni               67         0.570511   0.061941   0.813302   x
            x  Ni               68         0.696747   0.937634   0.814408   x
            x  Ni               69         0.695238   0.062676   0.687443   x
            x  Ni               70         0.818533   0.063900   0.813031   x
            x  Ni               71         0.942877   0.938171   0.812667   x
            x  Ni               72         0.942035   0.063602   0.687646   x
            x  Ni               73         0.567874   0.312933   0.065617   x
            x  Ni               74         0.692930   0.187736   0.063750   x
            x  Ni               75         0.692000   0.313111   0.938308   x
            x  Ni               76         0.817439   0.312885   0.062786   x
            x  Ni               77         0.942437   0.188545   0.062317   x
            x  Ni               78         0.941965   0.313047   0.937328   x
            x  Ni               79         0.568585   0.563599   0.062983   x
            x  Ni               80         0.692954   0.437668   0.063436   x
            x  Ni               81         0.693596   0.561828   0.937913   x
            x  Ni               82         0.818387   0.561764   0.062377   x
            x  Ni               83         0.942318   0.437381   0.062344   x
            x  Ni               84         0.942568   0.561724   0.937330   x
            x  Ni               85         0.569086   0.813238   0.061794   x
            x  Ni               86         0.695679   0.687596   0.061440   x
            x  Ni               87         0.695461   0.812516   0.938096   x
            x  Ni               88         0.819667   0.812905   0.061994   x
            x  Ni               89         0.942943   0.687041   0.062044   x
            x  Ni               90         0.943446   0.812445   0.937447   x
            x  Ni               91         0.567978   0.061263   0.063492   x
            x  Ni               92         0.694473   0.937942   0.062454   x
            x  Ni               93         0.694197   0.063143   0.938544   x
            x  Ni               94         0.818641   0.063476   0.062641   x
[...]
             Al 15 -- Ni 144                 0.18         0.00          2.58698
             Al 60 -- Ni 131                 0.17         0.00          2.58700
             Al 51 -- Ni 142                 0.18         0.00          2.58702
             Al 25 -- Ni 73                  0.20         0.00          2.58707
             Al 17 -- Ni 43                  0.20         0.00          2.58737
            Ni 37  -- Ni 38                  0.07        -0.00          2.58754
             Al 52 -- Ni 31                  0.24         0.00          2.58755
            Ni 98  -- Ni 99                  0.00         0.00          2.58759
            Ni 155 -- Ni 156                 0.07         0.00          2.58762
             Al 36 -- Ni 188                 0.19        -0.00          2.58764
             Al 33 -- Ni 169                 0.19        -0.00          2.58777
            Ni 159 -- Ni 167                 0.10        -0.00          2.58786
            Ni 103 -- Ni 169                -0.02         0.00          2.58799
             Al 23 -- Ni 165                 0.19         0.00          2.58813
            Ni 116 -- Ni 118                 0.02         0.00          2.58821
            Ni 151 -- Ni 174                -0.05        -0.00          2.58825
            Ni 114 -- Ni 140                -0.01         0.00          2.58845
            Ni 12  -- Ni 89                  0.03         0.00          2.58862
            Ni 138 -- Ni 160                 0.06        -0.00          2.58873
            Ni 1   -- Ni 101                 0.04         0.00          2.58876
             Al 21 -- Ni 159                 0.17         0.00          2.58890
            Ni 31  -- Ni 57                 -0.01        -0.00          2.58893
            Ni 35  -- Ni 129                 0.10        -0.00          2.58898
            Ni 29  -- Ni 72                  0.01         0.00          2.58912
            Ni 129 -- Ni 132                 0.13         0.00          2.58924
            Ni 25  -- Ni 153                 0.10         0.00          2.58963
             Al 49 -- Ni 37                  0.18        -0.00          2.58982
            Ni 183 -- Ni 185                 0.07         0.00          2.58996
             Al 7  -- Ni 13                  0.20        -0.00          2.59009
            Ni 90  -- Ni 95                  0.01         0.00          2.59019
             Al 5  -- Ni 115                 0.17         0.00          2.59035
             Al 15 -- Ni 37                  0.20        -0.00          2.59040
            Ni 142 -- Ni 143                 0.05         0.00          2.59053
             Al 48 -- Ni 141                 0.18         0.00          2.59060
             Al 22 -- Ni 62                  0.20        -0.00          2.59061
             Al 48 -- Ni 120                 0.20         0.00          2.59102
             Al 40 -- Ni 124                 0.19         0.00          2.59104
            Ni 100 -- Ni 107                 0.04         0.00          2.59126
            Ni 13  -- Ni 39                  0.02         0.00          2.59129
            Ni 7   -- Ni 9                  -0.01        -0.00          2.59144
            Ni 112 -- Ni 113                 0.02         0.00          2.59168
            Ni 25  -- Ni 146                -0.01        -0.00          2.59205
             Al 19 -- Ni 151                 0.20         0.00          2.59223
            Ni 67  -- Ni 165                 0.03        -0.00          2.59229
            Ni 49  -- Ni 151                 0.07        -0.00          2.59232
            Ni 104 -- Ni 105                 0.05         0.00          2.59239
            Ni 55  -- Ni 181                 0.07        -0.00          2.59258
             Al 11 -- Ni 1                   0.18         0.00          2.59282
            Ni 7   -- Ni 107                 0.13         0.00          2.59287
            Ni 126 -- Ni 134                 0.04         0.00          2.59302
            Ni 150 -- Ni 178                 0.08         0.00          2.59322
            Ni 110 -- Ni 112                 0.05         0.00          2.59359
             Al 15 -- Ni 44                  0.20         0.00          2.59387
            Ni 128 -- Ni 144                 0.14        -0.00          2.59391
             Al 60 -- Ni 106                 0.18         0.00          2.59397
             Al 36 -- Ni 190                 0.17        -0.00          2.59398
            Ni 71  -- Ni 96                  0.01        -0.00          2.59436
             Al 16 -- Ni 40                  0.19         0.00          2.59441
             Al 51 -- Ni 124                 0.20         0.00          2.59449
             Al 38 -- Ni 188                 0.17         0.00          2.59501
            Ni 121 -- Ni 191                 0.00        -0.00          2.59547
             Al 60 -- Ni 113                 0.18         0.00          2.59558
            Ni 127 -- Ni 128                 0.09         0.00          2.59572
             Al 45 -- Ni 150                 0.16        -0.00          2.59591
             Al 14 -- Ni 16                  0.19         0.00          2.59620
             Al 24 -- Ni 46                  0.19         0.00          2.59646
             Al 43 -- Ni 150                 0.18         0.00          2.59659
             Al 23 -- Ni 37                  0.20        -0.00          2.59675
             Al 34 -- Ni 162                 0.16         0.00          2.59701
            Ni 99  -- Ni 169                 0.01         0.00          2.59792
             Al 48 -- Ni 139                 0.19         0.00          2.59834
            Ni 101 -- Ni 144                 0.10         0.00          2.59855
             Al 40 -- Ni 145                 0.17         0.00          2.59868
            Ni 68  -- Ni 69                  0.02        -0.00          2.59892
            Ni 111 -- Ni 186                 0.08        -0.00          2.59950
            Ni 95  -- Ni 96                  0.01         0.00          2.59963
            Ni 25  -- Ni 151                -0.02        -0.00          2.59975
            Ni 13  -- Ni 120                 0.04         0.00          2.59994
            Ni 41  -- Ni 66                 -0.03         0.00          2.60041
             Al 50 -- Ni 142                 0.15         0.00          2.60131
            Ni 112 -- Ni 122                 0.11         0.00          2.60245
            Ni 31  -- Ni 32                  0.06        -0.00          2.60250
            Ni 123 -- Ni 124                 0.01         0.00          2.60264
            Ni 156 -- Ni 167                 0.12         0.00          2.60279
             Al 46 -- Ni 153                 0.13        -0.00          2.60309
            Ni 152 -- Ni 160                 0.01        -0.00          2.60312
             Al 63 -- Ni 100                 0.18        -0.00          2.60315
            Ni 37  -- Ni 39                  0.02        -0.00          2.60370
            Ni 131 -- Ni 133                 0.03         0.00          2.60417
             Al 9  -- Ni 127                 0.19         0.00          2.60481
            Ni 169 -- Ni 171                -0.00         0.00          2.60490
            Ni 106 -- Ni 131                -0.03         0.00          2.60501
            Ni 7   -- Ni 8                   0.06        -0.00          2.60505
            Ni 161 -- Ni 162                -0.00         0.00          2.60513
            Ni 117 -- Ni 191                 0.08         0.00          2.60528
            Ni 59  -- Ni 78                 -0.01        -0.00          2.60548
             Al 58 -- Ni 122                 0.18        -0.00          2.60728
            Ni 178 -- Ni 185                 0.08        -0.00          2.60740
             Al 17 -- Ni 134                 0.18        -0.00          2.60757
            Ni 71  -- Ni 90                  0.02        -0.00          2.60759
             Al 15 -- Ni 139                 0.17         0.00          2.60775
            Ni 147 -- Ni 170                -0.03         0.00          2.60826
            Ni 41  -- Ni 42                  0.03         0.00          2.60852
             Al 9  -- Ni 144                 0.18         0.00          2.60881
            Ni 169 -- Ni 172                 0.01         0.00          2.60888
            Ni 53  -- Ni 54                 -0.00        -0.00          2.60903
            Ni 54  -- Ni 59                  0.00        -0.00          2.60915
             Al 3  -- Ni 7                   0.18        -0.00          2.60915
            Ni 146 -- Ni 174                 0.01        -0.00          2.60921
            Ni 60  -- Ni 65                  0.01        -0.00          2.60957
            Ni 170 -- Ni 171                -0.02         0.00          2.60959
             Al 51 -- Ni 163                 0.16        -0.00          2.60992
             Al 19 -- Ni 134                 0.18        -0.00          2.61004
            Ni 155 -- Ni 157                 0.07        -0.00          2.61011
            Ni 100 -- Ni 180                 0.11        -0.00          2.61050
            Ni 108 -- Ni 111                 0.02        -0.00          2.61050
            Ni 47  -- Ni 163                 0.06         0.00          2.61052
            Ni 158 -- Ni 160                 0.11        -0.00          2.61066
            Ni 13  -- Ni 20                  0.05         0.00          2.61069
             Al 17 -- Ni 49                  0.18         0.00          2.61089
            Ni 117 -- Ni 122                 0.03         0.00          2.61096
            Ni 25  -- Ni 126                -0.02         0.00          2.61118
            Ni 158 -- Ni 181                -0.01        -0.00          2.61129
            Ni 53  -- Ni 78                  0.00        -0.00          2.61134
            Ni 26  -- Ni 43                  0.07        -0.00          2.61163
             Al 38 -- Ni 178                 0.17        -0.00          2.61185
             Al 58 -- Ni 117                 0.15         0.00          2.61191
            Ni 143 -- Ni 167                 0.01        -0.00          2.61196
             Al 50 -- Ni 117                 0.15         0.00          2.61272
            Ni 130 -- Ni 153                -0.01         0.00          2.61279
            Ni 110 -- Ni 118                 0.04         0.00          2.61317
             Al 53 -- Ni 137                 0.18         0.00          2.61413
             Al 59 -- Ni 13                  0.17        -0.00          2.61464
            Ni 152 -- Ni 153                 0.10        -0.00          2.61520
            Ni 140 -- Ni 141                 0.08         0.00          2.61531
             Al 61 -- Ni 100                 0.19         0.00          2.61547
            Ni 65  -- Ni 66                  0.02        -0.00          2.61567
             Al 3  -- Ni 180                 0.16         0.00          2.61574
             Al 9  -- Ni 43                  0.19         0.00          2.61582
             Al 58 -- Ni 119                 0.17         0.00          2.61605
            Ni 151 -- Ni 152                 0.03        -0.00          2.61613
            Ni 121 -- Ni 173                 0.01        -0.00          2.61677
            Ni 168 -- Ni 177                 0.03         0.00          2.61689
             Al 47 -- Ni 150                 0.19        -0.00          2.61718
             Al 41 -- Ni 129                 0.19        -0.00          2.61718
             Al 35 -- Ni 122                 0.18        -0.00          2.61732
             Al 56 -- Ni 130                 0.17        -0.00          2.61740
             Al 36 -- Ni 184                 0.18         0.00          2.61763
            Ni 172 -- Ni 177                -0.02         0.00          2.61807
            Ni 150 -- Ni 153                -0.02         0.00          2.61876
            Ni 42  -- Ni 47                 -0.01         0.00          2.61885
             Al 40 -- Ni 143                 0.18        -0.00          2.61917
             Al 36 -- Ni 122                 0.17        -0.00          2.62026
            Ni 65  -- Ni 148                 0.04        -0.00          2.62026
             Al 11 -- Ni 27                  0.17        -0.00          2.62031
            Ni 173 -- Ni 192                -0.00        -0.00          2.62177
             Al 38 -- Ni 177                 0.16        -0.00          2.62177
            Ni 102 -- Ni 109                -0.00         0.00          2.62296
            Ni 178 -- Ni 184                 0.02        -0.00          2.62311
            Ni 115 -- Ni 117                 0.10        -0.00          2.62411
             Al 34 -- Ni 122                 0.16         0.00          2.62482
            Ni 178 -- Ni 179                 0.06         0.00          2.62542
            Ni 136 -- Ni 141                 0.01         0.00          2.62543
            Ni 170 -- Ni 175                -0.03         0.00          2.62685
            Ni 124 -- Ni 125                 0.03         0.00          2.62768
             Al 61 -- Ni 104                 0.15         0.00          2.62800
             Al 23 -- Ni 166                 0.14        -0.00          2.63056
            Ni 162 -- Ni 164                 0.01        -0.00          2.63087
             Al 37 -- Ni 190                 0.15        -0.00          2.63106
             Al 39 -- Ni 178                 0.18         0.00          2.63121
            Ni 156 -- Ni 157                 0.12         0.00          2.63179
             Al 49 -- Ni 139                 0.16         0.00          2.63366
            Ni 100 -- Ni 101                 0.08         0.00          2.63462
            Ni 114 -- Ni 133                 0.10         0.00          2.63676
            Ni 155 -- Ni 188                 0.03        -0.00          2.63726
             Al 43 -- Ni 155                 0.18         0.00          2.63746
            Ni 154 -- Ni 155                 0.06        -0.00          2.63768
             Al 19 -- Ni 31                  0.17        -0.00          2.63828
             Al 48 -- Al 49                  0.27         0.00          2.63833
             Al 38 -- Ni 182                 0.16         0.00          2.63901
            Ni 127 -- Ni 135                -0.02         0.00          2.64007
            Ni 114 -- Ni 138                 0.01         0.00          2.64161
            Ni 102 -- Ni 108                 0.08        -0.00          2.64370
             Al 48 -- Al 50                  0.25         0.00          2.64394
             Al 46 -- Ni 147                 0.11         0.00          2.64531
             Al 35 -- Ni 190                 0.13         0.00          2.64702
            Ni 156 -- Ni 162                 0.13         0.00          2.64764
             Al 33 -- Ni 122                 0.15        -0.00          2.64860
             Al 50 -- Al 58                  0.24         0.00          2.65011
             Al 13 -- Ni 139                 0.18        -0.00          2.65120
             Al 35 -- Ni 189                 0.15         0.00          2.65217
             Al 42 -- Ni 153                 0.17        -0.00          2.65546
             Al 23 -- Ni 159                 0.13        -0.00          2.65579
            Ni 100 -- Ni 103                 0.09         0.00          2.65973
             Al 55 -- Ni 130                 0.16        -0.00          2.66091
             Al 37 -- Ni 122                 0.15         0.00          2.66130
             Al 38 -- Al 45                  0.23        -0.00          2.66636
             Al 50 -- Ni 119                 0.13         0.00          2.66852
            Ni 129 -- Ni 130                 0.09         0.00          2.66866
             Al 23 -- Al 49                  0.24        -0.00          2.66876
            Ni 161 -- Ni 170                 0.04         0.00          2.66966
            Ni 148 -- Ni 150                 0.08        -0.00          2.67202
             Al 42 -- Al 43                  0.24        -0.00          2.67247
            Ni 126 -- Ni 127                 0.02         0.00          2.67393
             Al 56 -- Ni 124                 0.15         0.00          2.68152
             Al 52 -- Ni 37                  0.14         0.00          2.68471
            Ni 168 -- Ni 169                 0.02         0.00          2.69331
             Al 55 -- Ni 100                 0.14        -0.00          2.69681
             Al 46 -- Al 56                  0.23         0.00          2.69961
            Ni 149 -- Ni 150                -0.00         0.00          2.70831
             Al 45 -- Al 62                  0.19        -0.00          2.71189
             Al 43 -- Ni 160                 0.12         0.00          2.71199
            Ni 130 -- Ni 149                 0.01         0.00          2.71639
            Ni 164 -- Ni 170                 0.03         0.00          2.72180
             Al 42 -- Al 45                  0.21        -0.00          2.72188
             Al 34 -- Al 35                  0.20        -0.00          2.72672
             Al 44 -- Al 45                  0.20        -0.00          2.72872
             Al 46 -- Al 47                  0.20         0.00          2.72920
             Al 36 -- Al 37                  0.21        -0.00          2.73251
             Al 61 -- Al 63                  0.19         0.00          2.73264
             Al 33 -- Al 58                  0.21         0.00          2.73327
             Al 34 -- Al 37                  0.20         0.00          2.74018
             Al 33 -- Al 35                  0.20         0.00          2.75422
             Al 5  -- Al 59                  0.17        -0.00          2.75686
             Al 15 -- Al 49                  0.20        -0.00          2.76700
             Al 13 -- Al 59                  0.26         0.00          2.77026
             Al 47 -- Al 62                  0.17        -0.00          2.77031
             Al 44 -- Al 46                  0.17        -0.00          2.77069
             Al 57 -- Al 63                  0.19         0.00          2.77372
             Al 13 -- Al 52                  0.27         0.00          2.77378
             Al 40 -- Al 51                  0.20         0.00          2.77495
             Al 53 -- Al 54                  0.18         0.00          2.77899
             Al 21 -- Al 52                  0.17        -0.00          2.78057
             Al 41 -- Al 43                  0.16         0.00          2.78687
             Al 56 -- Al 57                  0.20         0.00          2.79657
             Al 42 -- Ni 150                 0.11         0.00          2.79727
             Al 43 -- Al 54                  0.17         0.00          2.79927
             Al 41 -- Al 53                  0.17         0.00          2.80702
             Al 55 -- Al 56                  0.14         0.00          2.84745
             Al 55 -- Al 63                  0.14         0.00          2.84798
             Al 41 -- Al 54                  0.13         0.00          2.85112
             Al 44 -- Al 62                  0.11         0.00          2.89691
================================================================================
 

Writing analysis data to castep.castep_bin

Writing model to castep.check
 
 A BibTeX formatted list of references used in this run has been written to 
 castep.bib
 
Initialisation time =     13.55 s
Calculation time    =  24341.06 s
Finalisation time   =     15.24 s
Total time          =  24369.84 s
Peak Memory Use     = 2368756 kB
  
Overall parallel efficiency rating: Good (71%)                                  
  
Data was distributed by:-
G-vector (48-way); efficiency rating: Good (72%)                                
