 +-------------------------------------------------+
 |                                                 |
 |      CCC   AA    SSS  TTTTT  EEEEE  PPPP        |
 |     C     A  A  S       T    E      P   P       |
 |     C     AAAA   SS     T    EEE    PPPP        |
 |     C     A  A     S    T    E      P           |
 |      CCC  A  A  SSS     T    EEEEE  P           |
 |                                                 |
 +-------------------------------------------------+
 |                                                 |
 | Welcome to Academic Release CASTEP version 20.11|          
 | Ab Initio Total Energy Program                  |
 |                                                 |
 | Authors:                                        |
 | M. Segall, M. Probert, C. Pickard, P. Hasnip,   |
 | S. Clark, K. Refson, J. R. Yates, M. Payne      |
 |                                                 |
 | Contributors:                                   |
 | P. Lindan, P. Haynes, J. White, V. Milman,      |
 | N. Govind, M. Gibson, P. Tulip, V. Cocula,      |
 | B. Montanari, D. Quigley, M. Glover,            |
 | L. Bernasconi, A. Perlov, M. Plummer,           |
 | E. McNellis, J. Meyer, J. Gale, D. Jochym       |
 | J. Aarons, B. Walker, R. Gillen, D. Jones       |
 | T. Green, I. J. Bush, C. J. Armstrong,          |
 | E. J. Higgins, E. L. Brown, M. S. McFly,        |
 | J. Wilkins, B-C. Shih, P. J. P. Byrne,          |
 | R. J. Maurer, J. C. Womack, J. Dziedzic,        |
 | J. R. Kermode, A. Bartok-Partay                 |
 |                                                 |
 | Copyright (c) 2000 - 2020                       |
 |                                                 |
 |     Distributed under license from Cambridge    |
 |     Enterprise for academic use only.           |
 |                                                 |
 | Please cite                                     |
 |                                                 |
 |     "First principles methods using CASTEP"     |
 |                                                 |
 |         Zeitschrift fuer Kristallographie       |
 |           220(5-6) pp. 567-570 (2005)           |
 |                                                 |
 | S. J. Clark, M. D. Segall, C. J. Pickard,       |
 | P. J. Hasnip, M. J. Probert, K. Refson,         |
 | M. C. Payne                                     |
 |                                                 |
 |       in all publications arising from          |
 |              your use of CASTEP                 |
 |                                                 |
 +-------------------------------------------------+
 |                                                 |
 |              http://www.castep.org              |
 |                                                 |
 +-------------------------------------------------+
 
 
 
 Compiled for linux_x86_64_ifort on Wed, 22 Sep 2021 16:00:02 +0100
 from code version e772bf432+  HEAD  Sat Apr 3 17:41:32 2021 +0100
 Compiler: Intel Fortran 19.1.3.304; Optimisation: fast
 MATHLIBS: Intel MKL(2020.0.4) (LAPACK version 3.8.0)
 FFT Lib : mkl
 Fundamental constants values: CODATA 2014
 
 Run started: Tue, 11 Oct 2022 14:48:25 +0100
 
 Atomic calculation performed for Al: 1s2 2s2 2p6 3s2 3p1
 
 Converged in 52 iterations to an ae energy of -6606.982 eV
 
   ============================================================                
   | Pseudopotential Report - Date of generation 11-10-2022   |                
   ------------------------------------------------------------                
   | Element: Al Ionic charge:  3.00 Level of theory: RPBE    |                
   | Atomic Solver: Koelling-Harmon                           |                
   |                                                          |                
   |               Reference Electronic Structure             |                
   |         Orbital         Occupation         Energy        |                
   |            3s              2.000           -0.284        |                
   |            3p              1.000           -0.100        |                
   |                                                          |                
   |                 Pseudopotential Definition               |                
   |        Beta     l      e      Rc     scheme   norm       |                
   |          1      0   -0.284   2.192     qc      0         |                
   |          2      0    0.250   2.192     qc      0         |                
   |          3      1   -0.100   2.192     qc      0         |                
   |          4      1    0.250   2.192     qc      0         |                
   |          5      2    0.000   2.000     qc      0         |                
   |          6      2    0.250   2.000     qc      0         |                
   |         loc     3    0.000   2.192     pn      0         |                
   |                                                          |                
   | Augmentation charge Rinner = 1.398                       |                
   | Partial core correction Rc = 1.398                       |                
   ------------------------------------------------------------                
   | "3|2.2|2.2|1.4|4|5|5|30:31:32U2U2"                       |                
   ------------------------------------------------------------                
   |      Author: Chris J. Pickard, Cambridge University      |                
   ============================================================                
 
 Atomic calculation performed for Ni: 1s2 2s2 2p6 3s2 3p6 3d8 4s2
 
 Converged in 109 iterations to an ae energy of -41381.414 eV
 
   ============================================================                
   | Pseudopotential Report - Date of generation 11-10-2022   |                
   ------------------------------------------------------------                
   | Element: Ni Ionic charge: 10.00 Level of theory: RPBE    |                
   | Atomic Solver: Koelling-Harmon                           |                
   |                                                          |                
   |               Reference Electronic Structure             |                
   |         Orbital         Occupation         Energy        |                
   |            3d              8.000           -0.324        |                
   |            4s              2.000           -0.204        |                
   |                                                          |                
   |                 Pseudopotential Definition               |                
   |        Beta     l      e      Rc     scheme   norm       |                
   |          1      0   -0.204   2.401     qc      0         |                
   |          2      0    0.250   2.401     qc      0         |                
   |          3      1    0.000   2.401     qc      0         |                
   |          4      1    0.250   2.401     qc      0         |                
   |          5      2   -0.324   1.999     qc      0         |                
   |          6      2    0.250   1.999     qc      0         |                
   |         loc     3    0.000   2.401     pn      0         |                
   |                                                          |                
   | Augmentation charge Rinner = 1.001                       |                
   | Partial core correction Rc = 1.001                       |                
   ------------------------------------------------------------                
   | "3|2.4|2.4|1.0|8|9|10|40:41:32U2U2(qc=5.5)"              |                
   ------------------------------------------------------------                
   |      Author: Chris J. Pickard, Cambridge University      |                
   ============================================================                
 
 Pseudo atomic calculation performed for Al 3s2 3p1
 
 Converged in 13 iterations to a total energy of -107.6592 eV
 
 Pseudo atomic calculation performed for Ni 3d8 4s2
 
 Converged in 41 iterations to a total energy of -1369.7890 eV
 Calculation parallelised over 48 processes.
 Data is distributed by G-vector(48-way)

 ************************************ Title ************************************
 

 ***************************** General Parameters ******************************
  
 output verbosity                               : normal  (1)
 write checkpoint data to                       : castep.check
 type of calculation                            : geometry optimization
 stress calculation                             : off
 density difference calculation                 : off
 electron localisation func (ELF) calculation   : off
 Hirshfeld analysis                             : off
 molecular orbital projected DOS                : off
 deltaSCF calculation                           : off
 unlimited duration calculation
 timing information                             : on
 memory usage estimate                          : on
 write extra output files                       : on
 write final potential to formatted file        : off
 write final density to formatted file          : off
 write BibTeX reference list                    : on
 write OTFG pseudopotential files               : on
 write electrostatic potential file             : on
 write bands file                               : on
 checkpoint writing                             : both castep_bin and check files
  
 output         length unit                     : A
 output           mass unit                     : amu
 output           time unit                     : ps
 output         charge unit                     : e
 output           spin unit                     : hbar/2
 output         energy unit                     : eV
 output          force unit                     : eV/A
 output       velocity unit                     : A/ps
 output       pressure unit                     : GPa
 output     inv_length unit                     : 1/A
 output      frequency unit                     : cm-1
 output force constant unit                     : eV/A**2
 output         volume unit                     : A**3
 output   IR intensity unit                     : (D/A)**2/amu
 output         dipole unit                     : D
 output         efield unit                     : eV/A/e
 output        entropy unit                     : J/mol/K
 output    efield chi2 unit                     : pm/V
  
 wavefunctions paging                           : none
 random number generator seed                   : randomised (144826098)
 data distribution                              : optimal for this architecture
 optimization strategy                          : maximize speed(+++)

 *********************** Exchange-Correlation Parameters ***********************
  
 using functional                               : revised Perdew Burke Ernzerhof
 relativistic treatment                         : Koelling-Harmon
 DFT+D: Semi-empirical dispersion correction    : off

 ************************* Pseudopotential Parameters **************************
  
 pseudopotential representation                 : reciprocal space
 <beta|phi> representation                      : reciprocal space
 spin-orbit coupling                            : off

 **************************** Basis Set Parameters *****************************
  
 plane wave basis set cut-off                   :   900.0000   eV
 size of standard grid                          :     1.7500
 size of   fine   gmax                          :    26.8966   1/A
 finite basis set correction                    : automatic
 number of sample energies                      :          3
           sample  spacing                      :     5.0000   eV

 **************************** Electronic Parameters ****************************
  
 number of  electrons                           :  2112.    
 net charge of system                           :  0.000    
 treating system as non-spin-polarized
 number of bands                                :       1168

 ********************* Electronic Minimization Parameters **********************
  
 Method: Treating system as metallic with density mixing treatment of electrons,
         and number of  SD  steps               :          1
         and number of  CG  steps               :          4
  
 total energy / atom convergence tol.           : 0.1000E-05   eV
 eigen-energy convergence tolerance             : 0.2192E-06   eV
 max force / atom convergence tol.              : ignored
 convergence tolerance window                   :          3   cycles
 max. number of SCF cycles                      :        360
 number of fixed-spin iterations                :         10
 smearing scheme                                : Gaussian
 smearing width                                 : 0.2000       eV
 Fermi energy convergence tolerance             : 0.2721E-13   eV
 periodic dipole correction                     : NONE

 ************************** Density Mixing Parameters **************************
  
 density-mixing scheme                          : Pulay
 max. length of mixing history                  :         20
 charge density mixing amplitude                : 0.8000    
 cut-off energy for mixing                      :  900.0       eV

 *********************** Population Analysis Parameters ************************
  
 Population analysis with cutoff                :  3.000       A
 Population analysis output                     : summary and pdos components

 ********************** Geometry Optimization Parameters ***********************
  
 optimization method                            : LBFGS
 max. no. of LBFGS updates                      : unbounded
 preconditioned LBFGS is activated
 preconditioner type                            : EXP
     stabilization constant                     :     0.1000
     parameter A                                :     3.0000
     nearest neighbor distance                  : automatic
     cut-off distance                           : automatic
     parameter mu                               : automatic
 variable cell method                           : fixed basis quality
 max. number of steps                           :         30
 estimated bulk modulus                         :  500.0       GPa
 estimated <frequency>                          :  1668.       cm-1
 geom line minimiser                            : on
 with line minimiser tolerance                  :     0.4000
 total energy convergence tolerance             : 0.2000E-04   eV/atom
        max ionic |force| tolerance             : 0.5000E-01   eV/A
 max ionic |displacement| tolerance             : 0.1000E-02   A
   max |stress component| tolerance             : 0.1000       GPa
 convergence tolerance window                   :          2   steps
 backup results every                           :          5   steps
 write geom trajectory file                     : on

 *******************************************************************************
  
 
                           -------------------------------
                                      Unit Cell
                           -------------------------------
        Real Lattice(A)                      Reciprocal Lattice(1/A)
    14.4528000     0.0000000     0.0000000        0.434738273   0.000000000   0.000000000
     0.0000000    14.4528000     0.0000000        0.000000000   0.434738273   0.000000000
     0.0000000     0.0000000    14.4528000        0.000000000   0.000000000   0.434738273
 
                       Lattice parameters(A)       Cell Angles
                    a =     14.452800          alpha =   90.000000
                    b =     14.452800          beta  =   90.000000
                    c =     14.452800          gamma =   90.000000
 
                       Current cell volume =          3018.950406       A**3
                                   density =             4.304791   AMU/A**3
                                           =             7.148274     g/cm^3
 
                           -------------------------------
                                     Cell Contents
                           -------------------------------
                         Total number of ions in cell =  256
                      Total number of species in cell =    2
                        Max number of any one species =  192
 
            xxxxxxxxxxxxxxxxxxxxxxxxxxxxxxxxxxxxxxxxxxxxxxxxxxxxxxxxxxxx
            x  Element    Atom        Fractional coordinates of atoms  x
            x            Number           u          v          w      x
            x----------------------------------------------------------x
            x  Al           1         0.937500   0.812500   0.937500   x 
            x  Al           2         0.812500   0.937500   0.937500   x 
            x  Al           3         0.437500   0.937500   0.812500   x 
            x  Al           4         0.437500   0.812500   0.937500   x 
            x  Al           5         0.937500   0.687500   0.812500   x 
            x  Al           6         0.687500   0.687500   0.812500   x 
            x  Al           7         0.687500   0.562500   0.937500   x 
            x  Al           8         0.437500   0.562500   0.937500   x 
            x  Al           9         0.187500   0.687500   0.812500   x 
            x  Al          10         0.062500   0.687500   0.937500   x 
            x  Al          11         0.312500   0.437500   0.937500   x 
            x  Al          12         0.187500   0.437500   0.812500   x 
            x  Al          13         0.812500   0.062500   0.812500   x 
            x  Al          14         0.937500   0.062500   0.937500   x 
            x  Al          15         0.312500   0.187500   0.937500   x 
            x  Al          16         0.062500   0.187500   0.937500   x 
            x  Al          17         0.687500   0.812500   0.687500   x 
            x  Al          18         0.187500   0.812500   0.687500   x 
            x  Al          19         0.937500   0.687500   0.562500   x 
            x  Al          20         0.562500   0.562500   0.562500   x 
            x  Al          21         0.687500   0.687500   0.562500   x 
            x  Al          22         0.437500   0.687500   0.562500   x 
            x  Al          23         0.562500   0.312500   0.562500   x 
            x  Al          24         0.687500   0.312500   0.687500   x 
            x  Al          25         0.187500   0.437500   0.562500   x 
            x  Al          26         0.937500   0.187500   0.562500   x 
            x  Al          27         0.937500   0.062500   0.687500   x 
            x  Al          28         0.687500   0.187500   0.562500   x 
            x  Al          29         0.687500   0.062500   0.687500   x 
            x  Al          30         0.437500   0.187500   0.562500   x 
            x  Al          31         0.812500   0.937500   0.437500   x 
            x  Al          32         0.687500   0.812500   0.437500   x 
            x  Al          33         0.812500   0.562500   0.312500   x 
            x  Al          34         0.937500   0.562500   0.437500   x 
            x  Al          35         0.812500   0.687500   0.437500   x 
            x  Al          36         0.687500   0.562500   0.437500   x 
            x  Al          37         0.562500   0.687500   0.437500   x 
            x  Al          38         0.312500   0.562500   0.312500   x 
            x  Al          39         0.937500   0.312500   0.437500   x 
            x  Al          40         0.687500   0.312500   0.437500   x 
            x  Al          41         0.062500   0.312500   0.312500   x 
            x  Al          42         0.687500   0.187500   0.312500   x 
            x  Al          43         0.562500   0.187500   0.437500   x 
            x  Al          44         0.312500   0.062500   0.312500   x 
            x  Al          45         0.812500   0.812500   0.062500   x 
            x  Al          46         0.687500   0.937500   0.062500   x 
            x  Al          47         0.687500   0.812500   0.187500   x 
            x  Al          48         0.562500   0.937500   0.187500   x 
            x  Al          49         0.312500   0.812500   0.062500   x 
            x  Al          50         0.187500   0.937500   0.062500   x 
            x  Al          51         0.937500   0.562500   0.187500   x 
            x  Al          52         0.562500   0.562500   0.062500   x 
            x  Al          53         0.687500   0.562500   0.187500   x 
            x  Al          54         0.562500   0.687500   0.187500   x 
            x  Al          55         0.062500   0.562500   0.062500   x 
            x  Al          56         0.812500   0.312500   0.062500   x 
            x  Al          57         0.937500   0.437500   0.062500   x 
            x  Al          58         0.937500   0.312500   0.187500   x 
            x  Al          59         0.562500   0.312500   0.062500   x 
            x  Al          60         0.687500   0.312500   0.187500   x 
            x  Al          61         0.312500   0.312500   0.062500   x 
            x  Al          62         0.312500   0.437500   0.187500   x 
            x  Al          63         0.187500   0.312500   0.187500   x 
            x  Al          64         0.812500   0.187500   0.187500   x 
            x  Ni           1         0.062500   0.187500   0.187500   x 
            x  Ni           2         0.187500   0.062500   0.187500   x 
            x  Ni           3         0.187500   0.187500   0.062500   x 
            x  Ni           4         0.062500   0.062500   0.062500   x 
            x  Ni           5         0.312500   0.187500   0.187500   x 
            x  Ni           6         0.437500   0.062500   0.187500   x 
            x  Ni           7         0.437500   0.187500   0.062500   x 
            x  Ni           8         0.312500   0.062500   0.062500   x 
            x  Ni           9         0.562500   0.187500   0.187500   x 
            x  Ni          10         0.687500   0.062500   0.187500   x 
            x  Ni          11         0.687500   0.187500   0.062500   x 
            x  Ni          12         0.562500   0.062500   0.062500   x 
            x  Ni          13         0.937500   0.062500   0.187500   x 
            x  Ni          14         0.937500   0.187500   0.062500   x 
            x  Ni          15         0.812500   0.062500   0.062500   x 
            x  Ni          16         0.062500   0.437500   0.187500   x 
            x  Ni          17         0.187500   0.437500   0.062500   x 
            x  Ni          18         0.062500   0.312500   0.062500   x 
            x  Ni          19         0.437500   0.312500   0.187500   x 
            x  Ni          20         0.437500   0.437500   0.062500   x 
            x  Ni          21         0.562500   0.437500   0.187500   x 
            x  Ni          22         0.687500   0.437500   0.062500   x 
            x  Ni          23         0.812500   0.437500   0.187500   x 
            x  Ni          24         0.062500   0.687500   0.187500   x 
            x  Ni          25         0.187500   0.562500   0.187500   x 
            x  Ni          26         0.187500   0.687500   0.062500   x 
            x  Ni          27         0.312500   0.687500   0.187500   x 
            x  Ni          28         0.437500   0.562500   0.187500   x 
            x  Ni          29         0.437500   0.687500   0.062500   x 
            x  Ni          30         0.312500   0.562500   0.062500   x 
            x  Ni          31         0.687500   0.687500   0.062500   x 
            x  Ni          32         0.812500   0.687500   0.187500   x 
            x  Ni          33         0.937500   0.687500   0.062500   x 
            x  Ni          34         0.812500   0.562500   0.062500   x 
            x  Ni          35         0.062500   0.937500   0.187500   x 
            x  Ni          36         0.187500   0.812500   0.187500   x 
            x  Ni          37         0.062500   0.812500   0.062500   x 
            x  Ni          38         0.312500   0.937500   0.187500   x 
            x  Ni          39         0.437500   0.812500   0.187500   x 
            x  Ni          40         0.437500   0.937500   0.062500   x 
            x  Ni          41         0.562500   0.812500   0.062500   x 
            x  Ni          42         0.812500   0.937500   0.187500   x 
            x  Ni          43         0.937500   0.812500   0.187500   x 
            x  Ni          44         0.937500   0.937500   0.062500   x 
            x  Ni          45         0.062500   0.187500   0.437500   x 
            x  Ni          46         0.187500   0.062500   0.437500   x 
            x  Ni          47         0.187500   0.187500   0.312500   x 
            x  Ni          48         0.062500   0.062500   0.312500   x 
            x  Ni          49         0.312500   0.187500   0.437500   x 
            x  Ni          50         0.437500   0.062500   0.437500   x 
            x  Ni          51         0.437500   0.187500   0.312500   x 
            x  Ni          52         0.687500   0.062500   0.437500   x 
            x  Ni          53         0.562500   0.062500   0.312500   x 
            x  Ni          54         0.812500   0.187500   0.437500   x 
            x  Ni          55         0.937500   0.062500   0.437500   x 
            x  Ni          56         0.937500   0.187500   0.312500   x 
            x  Ni          57         0.812500   0.062500   0.312500   x 
            x  Ni          58         0.062500   0.437500   0.437500   x 
            x  Ni          59         0.187500   0.312500   0.437500   x 
            x  Ni          60         0.187500   0.437500   0.312500   x 
            x  Ni          61         0.312500   0.437500   0.437500   x 
            x  Ni          62         0.437500   0.312500   0.437500   x 
            x  Ni          63         0.437500   0.437500   0.312500   x 
            x  Ni          64         0.312500   0.312500   0.312500   x 
            x  Ni          65         0.562500   0.437500   0.437500   x 
            x  Ni          66         0.687500   0.437500   0.312500   x 
            x  Ni          67         0.562500   0.312500   0.312500   x 
            x  Ni          68         0.812500   0.437500   0.437500   x 
            x  Ni          69         0.937500   0.437500   0.312500   x 
            x  Ni          70         0.812500   0.312500   0.312500   x 
            x  Ni          71         0.062500   0.687500   0.437500   x 
            x  Ni          72         0.187500   0.562500   0.437500   x 
            x  Ni          73         0.187500   0.687500   0.312500   x 
            x  Ni          74         0.062500   0.562500   0.312500   x 
            x  Ni          75         0.312500   0.687500   0.437500   x 
            x  Ni          76         0.437500   0.562500   0.437500   x 
            x  Ni          77         0.437500   0.687500   0.312500   x 
            x  Ni          78         0.687500   0.687500   0.312500   x 
            x  Ni          79         0.562500   0.562500   0.312500   x 
            x  Ni          80         0.937500   0.687500   0.312500   x 
            x  Ni          81         0.062500   0.937500   0.437500   x 
            x  Ni          82         0.187500   0.812500   0.437500   x 
            x  Ni          83         0.187500   0.937500   0.312500   x 
            x  Ni          84         0.062500   0.812500   0.312500   x 
            x  Ni          85         0.312500   0.937500   0.437500   x 
            x  Ni          86         0.437500   0.812500   0.437500   x 
            x  Ni          87         0.437500   0.937500   0.312500   x 
            x  Ni          88         0.312500   0.812500   0.312500   x 
            x  Ni          89         0.562500   0.937500   0.437500   x 
            x  Ni          90         0.687500   0.937500   0.312500   x 
            x  Ni          91         0.562500   0.812500   0.312500   x 
            x  Ni          92         0.937500   0.812500   0.437500   x 
            x  Ni          93         0.937500   0.937500   0.312500   x 
            x  Ni          94         0.812500   0.812500   0.312500   x 
            x  Ni          95         0.062500   0.187500   0.687500   x 
            x  Ni          96         0.187500   0.062500   0.687500   x 
            x  Ni          97         0.187500   0.187500   0.562500   x 
            x  Ni          98         0.062500   0.062500   0.562500   x 
            x  Ni          99         0.312500   0.187500   0.687500   x 
            x  Ni         100         0.437500   0.062500   0.687500   x 
            x  Ni         101         0.312500   0.062500   0.562500   x 
            x  Ni         102         0.562500   0.187500   0.687500   x 
            x  Ni         103         0.562500   0.062500   0.562500   x 
            x  Ni         104         0.812500   0.187500   0.687500   x 
            x  Ni         105         0.812500   0.062500   0.562500   x 
            x  Ni         106         0.062500   0.437500   0.687500   x 
            x  Ni         107         0.187500   0.312500   0.687500   x 
            x  Ni         108         0.062500   0.312500   0.562500   x 
            x  Ni         109         0.312500   0.437500   0.687500   x 
            x  Ni         110         0.437500   0.312500   0.687500   x 
            x  Ni         111         0.437500   0.437500   0.562500   x 
            x  Ni         112         0.312500   0.312500   0.562500   x 
            x  Ni         113         0.562500   0.437500   0.687500   x 
            x  Ni         114         0.687500   0.437500   0.562500   x 
            x  Ni         115         0.812500   0.437500   0.687500   x 
            x  Ni         116         0.937500   0.312500   0.687500   x 
            x  Ni         117         0.937500   0.437500   0.562500   x 
            x  Ni         118         0.812500   0.312500   0.562500   x 
            x  Ni         119         0.062500   0.687500   0.687500   x 
            x  Ni         120         0.187500   0.562500   0.687500   x 
            x  Ni         121         0.187500   0.687500   0.562500   x 
            x  Ni         122         0.062500   0.562500   0.562500   x 
            x  Ni         123         0.312500   0.687500   0.687500   x 
            x  Ni         124         0.437500   0.562500   0.687500   x 
            x  Ni         125         0.312500   0.562500   0.562500   x 
            x  Ni         126         0.562500   0.687500   0.687500   x 
            x  Ni         127         0.687500   0.562500   0.687500   x 
            x  Ni         128         0.812500   0.687500   0.687500   x 
            x  Ni         129         0.937500   0.562500   0.687500   x 
            x  Ni         130         0.812500   0.562500   0.562500   x 
            x  Ni         131         0.062500   0.937500   0.687500   x 
            x  Ni         132         0.187500   0.937500   0.562500   x 
            x  Ni         133         0.062500   0.812500   0.562500   x 
            x  Ni         134         0.312500   0.937500   0.687500   x 
            x  Ni         135         0.437500   0.812500   0.687500   x 
            x  Ni         136         0.437500   0.937500   0.562500   x 
            x  Ni         137         0.312500   0.812500   0.562500   x 
            x  Ni         138         0.562500   0.937500   0.687500   x 
            x  Ni         139         0.687500   0.937500   0.562500   x 
            x  Ni         140         0.562500   0.812500   0.562500   x 
            x  Ni         141         0.812500   0.937500   0.687500   x 
            x  Ni         142         0.937500   0.812500   0.687500   x 
            x  Ni         143         0.937500   0.937500   0.562500   x 
            x  Ni         144         0.812500   0.812500   0.562500   x 
            x  Ni         145         0.187500   0.062500   0.937500   x 
            x  Ni         146         0.187500   0.187500   0.812500   x 
            x  Ni         147         0.062500   0.062500   0.812500   x 
            x  Ni         148         0.437500   0.062500   0.937500   x 
            x  Ni         149         0.437500   0.187500   0.812500   x 
            x  Ni         150         0.312500   0.062500   0.812500   x 
            x  Ni         151         0.562500   0.187500   0.937500   x 
            x  Ni         152         0.687500   0.062500   0.937500   x 
            x  Ni         153         0.687500   0.187500   0.812500   x 
            x  Ni         154         0.562500   0.062500   0.812500   x 
            x  Ni         155         0.812500   0.187500   0.937500   x 
            x  Ni         156         0.937500   0.187500   0.812500   x 
            x  Ni         157         0.062500   0.437500   0.937500   x 
            x  Ni         158         0.187500   0.312500   0.937500   x 
            x  Ni         159         0.062500   0.312500   0.812500   x 
            x  Ni         160         0.437500   0.312500   0.937500   x 
            x  Ni         161         0.437500   0.437500   0.812500   x 
            x  Ni         162         0.312500   0.312500   0.812500   x 
            x  Ni         163         0.562500   0.437500   0.937500   x 
            x  Ni         164         0.687500   0.312500   0.937500   x 
            x  Ni         165         0.687500   0.437500   0.812500   x 
            x  Ni         166         0.562500   0.312500   0.812500   x 
            x  Ni         167         0.812500   0.437500   0.937500   x 
            x  Ni         168         0.937500   0.312500   0.937500   x 
            x  Ni         169         0.937500   0.437500   0.812500   x 
            x  Ni         170         0.812500   0.312500   0.812500   x 
            x  Ni         171         0.187500   0.562500   0.937500   x 
            x  Ni         172         0.062500   0.562500   0.812500   x 
            x  Ni         173         0.312500   0.687500   0.937500   x 
            x  Ni         174         0.437500   0.687500   0.812500   x 
            x  Ni         175         0.312500   0.562500   0.812500   x 
            x  Ni         176         0.562500   0.687500   0.937500   x 
            x  Ni         177         0.562500   0.562500   0.812500   x 
            x  Ni         178         0.812500   0.687500   0.937500   x 
            x  Ni         179         0.937500   0.562500   0.937500   x 
            x  Ni         180         0.812500   0.562500   0.812500   x 
            x  Ni         181         0.062500   0.937500   0.937500   x 
            x  Ni         182         0.187500   0.812500   0.937500   x 
            x  Ni         183         0.187500   0.937500   0.812500   x 
            x  Ni         184         0.062500   0.812500   0.812500   x 
            x  Ni         185         0.312500   0.937500   0.937500   x 
            x  Ni         186         0.312500   0.812500   0.812500   x 
            x  Ni         187         0.562500   0.937500   0.937500   x 
            x  Ni         188         0.687500   0.812500   0.937500   x 
            x  Ni         189         0.687500   0.937500   0.812500   x 
            x  Ni         190         0.562500   0.812500   0.812500   x 
            x  Ni         191         0.937500   0.937500   0.812500   x 
            x  Ni         192         0.812500   0.812500   0.812500   x 
            xxxxxxxxxxxxxxxxxxxxxxxxxxxxxxxxxxxxxxxxxxxxxxxxxxxxxxxxxxxx
 
 
                         No user defined ionic velocities
 
                           -------------------------------
                                   Details of Species
                           -------------------------------
 
                               Mass of species in AMU
                                    Al   26.9815400
                                    Ni   58.6934000
 
                          Electric Quadrupole Moment (Barn)
                                    Al    0.1466000 Isotope 27
                                    Ni    0.1620000 Isotope 61
 
                          Files used for pseudopotentials:
                                    Al 3|2.2|2.2|1.4|4|5|5|30:31:32U2U2
                                    Ni 3|2.4|2.4|1.0|8|9|10|40:41:32U2U2(qc=5.5)
 
                           -------------------------------
                              k-Points For BZ Sampling
                           -------------------------------
                       MP grid size for SCF calculation is  1  1  1
                            with an offset of   0.000  0.000  0.000
                       Number of kpoints used =             1
 
                           -------------------------------
                               Symmetry and Constraints
                           -------------------------------
 
                      Maximum deviation from symmetry =  0.00000         ANG
 
                      Number of symmetry operations   =           1
                      Number of ionic constraints     =           3
                      Point group of crystal =     1: C1, 1, 1
                      Space group of crystal =     1: P1, P 1
 
             Set iprint > 1 for details on symmetry rotations/translations
 
                         Centre of mass is constrained
             Set iprint > 1 for details of linear ionic constraints
 
                         Number of cell constraints= 0
                         Cell constraints are:  1 2 3 4 5 6
 
                         External pressure/stress (GPa)
                          0.00000   0.00000   0.00000
                                    0.00000   0.00000
                                              0.00000
  
+---------------- MEMORY AND SCRATCH DISK ESTIMATES PER PROCESS --------------+
|                                                     Memory          Disk    |
| Baseline code, static data and system overhead     6721.0 MB         0.0 MB |
| BLAS internal memory storage                          0.0 MB         0.0 MB |
| Model and support data                              703.7 MB         0.0 MB |
| Electronic energy minimisation requirements         158.6 MB         0.0 MB |
| Force calculation requirements                        5.4 MB         0.0 MB |
|                                               ----------------------------- |
| Approx. total storage required per process         7583.3 MB         0.0 MB |
|                                                                             |
| Requirements will fluctuate during execution and may exceed these estimates |
+-----------------------------------------------------------------------------+
Calculating finite basis set correction with  3 cut-off energies.
Calculating total energy with cut-off of  890.000 eV.
------------------------------------------------------------------------ <-- SCF
SCF loop      Energy           Fermi           Energy gain       Timer   <-- SCF
                               energy          per atom          (sec)   <-- SCF
------------------------------------------------------------------------ <-- SCF
Initial  -2.20470336E+005  0.00000000E+000                        19.64  <-- SCF
      1  -2.63852429E+005  7.19225868E+000   1.69461299E+002      58.85  <-- SCF
      2  -2.70728452E+005  3.80458171E+000   2.68594670E+001      92.83  <-- SCF
      3  -2.71447795E+005  3.74025985E+000   2.80993088E+000     128.55  <-- SCF
      4  -2.71508000E+005  3.87799229E+000   2.35177144E-001     159.17  <-- SCF
      5  -2.71869858E+005  6.78709437E+000   1.41350566E+000     199.19  <-- SCF
      6  -2.71601183E+005  5.68685094E+000  -1.04951029E+000     245.32  <-- SCF
      7  -2.71505496E+005  4.83966673E+000  -3.73775144E-001     286.45  <-- SCF
      8  -2.71480440E+005  4.51913252E+000  -9.78748535E-002     330.07  <-- SCF
      9  -2.71476640E+005  4.52720344E+000  -1.48458174E-002     369.63  <-- SCF
     10  -2.71492044E+005  4.62849639E+000   6.01712970E-002     409.86  <-- SCF
     11  -2.71478694E+005  4.51072496E+000  -5.21460156E-002     450.16  <-- SCF
     12  -2.71473652E+005  4.47359932E+000  -1.96977564E-002     489.06  <-- SCF
     13  -2.71473977E+005  4.48160366E+000   1.27195987E-003     527.96  <-- SCF
     14  -2.71473794E+005  4.48528508E+000  -7.18084027E-004     567.40  <-- SCF
     15  -2.71472943E+005  4.48390643E+000  -3.32400212E-003     605.99  <-- SCF
     16  -2.71472927E+005  4.48619378E+000  -6.24874240E-005     645.14  <-- SCF
     17  -2.71472949E+005  4.48929866E+000   8.72946610E-005     684.51  <-- SCF
     18  -2.71472847E+005  4.49074053E+000  -3.99937433E-004     723.42  <-- SCF
     19  -2.71472855E+005  4.49031021E+000   3.22448711E-005     762.24  <-- SCF
     20  -2.71472871E+005  4.49188330E+000   6.27251731E-005     801.06  <-- SCF
     21  -2.71472835E+005  4.49188712E+000  -1.41258703E-004     839.10  <-- SCF
     22  -2.71472832E+005  4.49212472E+000  -9.00656610E-006     877.63  <-- SCF
     23  -2.71472835E+005  4.49216327E+000   1.04494691E-005     915.21  <-- SCF
     24  -2.71472832E+005  4.49223826E+000  -1.23143176E-005     951.27  <-- SCF
     25  -2.71472831E+005  4.49228250E+000  -3.38649287E-006     976.41  <-- SCF
     26  -2.71472831E+005  4.49226189E+000   3.93667654E-007    1000.89  <-- SCF
     27  -2.71472831E+005  4.49246343E+000   1.02307086E-007    1025.44  <-- SCF
------------------------------------------------------------------------ <-- SCF
 
Final energy, E             =  -271467.3928040     eV
Final free energy (E-TS)    =  -271472.8312378     eV
(energies not corrected for finite basis set)
 
NB est. 0K energy (E-0.5TS)      =  -271470.1120209     eV
 
Calculating total energy with cut-off of  895.000 eV.
------------------------------------------------------------------------ <-- SCF
SCF loop      Energy           Fermi           Energy gain       Timer   <-- SCF
                               energy          per atom          (sec)   <-- SCF
------------------------------------------------------------------------ <-- SCF
Initial  -2.71467387E+005  0.00000000E+000                      1038.01  <-- SCF
      1  -2.71473158E+005  4.49404482E+000   2.25453773E-002    1076.63  <-- SCF
      2  -2.71473159E+005  4.49404407E+000   2.16207214E-006    1109.29  <-- SCF
      3  -2.71561678E+005  4.85422016E+000   3.45778696E-001    1149.98  <-- SCF
      4  -2.71482766E+005  4.51616063E+000  -3.08251492E-001    1193.67  <-- SCF
      5  -2.71473674E+005  4.47460002E+000  -3.55168626E-002    1233.83  <-- SCF
      6  -2.71472957E+005  4.47475417E+000  -2.79915716E-003    1273.68  <-- SCF
      7  -2.71472950E+005  4.48379581E+000  -2.60434733E-005    1313.26  <-- SCF
      8  -2.71472920E+005  4.49283879E+000  -1.17333716E-004    1352.81  <-- SCF
      9  -2.71472856E+005  4.49691177E+000  -2.52260153E-004    1391.64  <-- SCF
     10  -2.71472851E+005  4.49222060E+000  -1.72378272E-005    1430.48  <-- SCF
     11  -2.71472841E+005  4.48848163E+000  -4.18821350E-005    1468.75  <-- SCF
     12  -2.71472840E+005  4.48816514E+000  -3.63015242E-006    1505.22  <-- SCF
     13  -2.71472838E+005  4.49003293E+000  -6.60684155E-006    1540.74  <-- SCF
     14  -2.71472835E+005  4.49085908E+000  -1.01200912E-005    1572.36  <-- SCF
     15  -2.71472835E+005  4.49121372E+000  -2.66600859E-006    1597.97  <-- SCF
     16  -2.71472834E+005  4.49187486E+000  -1.98756021E-006    1630.38  <-- SCF
     17  -2.71472832E+005  4.49235857E+000  -8.87568113E-006    1662.23  <-- SCF
     18  -2.71472832E+005  4.49240705E+000  -1.87733415E-006    1686.86  <-- SCF
     19  -2.71472832E+005  4.49240713E+000   2.32649708E-007    1711.28  <-- SCF
     20  -2.71472832E+005  4.49241698E+000  -8.01603657E-009    1735.63  <-- SCF
------------------------------------------------------------------------ <-- SCF
 
Final energy, E             =  -271467.3945285     eV
Final free energy (E-TS)    =  -271472.8315624     eV
(energies not corrected for finite basis set)
 
NB est. 0K energy (E-0.5TS)      =  -271470.1130454     eV
 
Calculating total energy with cut-off of  900.000 eV.
------------------------------------------------------------------------ <-- SCF
SCF loop      Energy           Fermi           Energy gain       Timer   <-- SCF
                               energy          per atom          (sec)   <-- SCF
------------------------------------------------------------------------ <-- SCF
Initial  -2.71467390E+005  0.00000000E+000                      1748.27  <-- SCF
      1  -2.71473222E+005  4.49795258E+000   2.27836065E-002    1787.79  <-- SCF
      2  -2.71473223E+005  4.49795187E+000   1.75813652E-006    1820.35  <-- SCF
      3  -2.71550764E+005  4.86431517E+000   3.02896915E-001    1862.86  <-- SCF
      4  -2.71492195E+005  4.52808403E+000  -2.28786262E-001    1905.49  <-- SCF
      5  -2.71474551E+005  4.45511757E+000  -6.89202020E-002    1945.73  <-- SCF
      6  -2.71473147E+005  4.45904322E+000  -5.48427495E-003    1986.70  <-- SCF
      7  -2.71473152E+005  4.47906542E+000   1.70421442E-005    2027.67  <-- SCF
      8  -2.71472972E+005  4.49682853E+000  -7.03206379E-004    2068.39  <-- SCF
      9  -2.71472882E+005  4.49945747E+000  -3.51078939E-004    2108.09  <-- SCF
     10  -2.71472861E+005  4.49154904E+000  -7.99467291E-005    2148.48  <-- SCF
     11  -2.71472842E+005  4.48858837E+000  -7.60251156E-005    2187.72  <-- SCF
     12  -2.71472839E+005  4.48787457E+000  -1.01320544E-005    2226.11  <-- SCF
     13  -2.71472838E+005  4.49031691E+000  -3.15068249E-006    2264.87  <-- SCF
     14  -2.71472833E+005  4.49153048E+000  -2.01120169E-005    2302.97  <-- SCF
     15  -2.71472833E+005  4.49187469E+000  -2.21852798E-006    2334.64  <-- SCF
     16  -2.71472834E+005  4.49201886E+000   3.77743992E-006    2369.83  <-- SCF
     17  -2.71472832E+005  4.49225477E+000  -5.84973493E-006    2398.82  <-- SCF
     18  -2.71472832E+005  4.49229876E+000  -1.77492323E-006    2424.06  <-- SCF
     19  -2.71472832E+005  4.49231975E+000  -2.53537923E-008    2449.21  <-- SCF
     20  -2.71472832E+005  4.49241955E+000   1.24892901E-007    2474.64  <-- SCF
------------------------------------------------------------------------ <-- SCF
 
Final energy, E             =  -271467.3939592     eV
Final free energy (E-TS)    =  -271472.8318162     eV
(energies not corrected for finite basis set)
 
NB est. 0K energy (E-0.5TS)      =  -271470.1128877     eV
 
 For future reference: finite basis dEtot/dlog(Ecut) =      -0.056790eV
 Total energy corrected for finite basis set = -271472.831888 eV
 
+---------------- MEMORY AND SCRATCH DISK ESTIMATES PER PROCESS --------------+
|                                                     Memory          Disk    |
| Model and support data                              723.2 MB         0.0 MB |
| Electronic energy minimisation requirements         158.6 MB         0.0 MB |
| Geometry minimisation requirements                  195.6 MB         0.0 MB |
|                                               ----------------------------- |
| Approx. total storage required per process         1077.4 MB         0.0 MB |
|                                                                             |
| Requirements will fluctuate during execution and may exceed these estimates |
+-----------------------------------------------------------------------------+
 
 
 ************************************** Forces **************************************
 *                                                                                  *
 *                           Cartesian components (eV/A)                            *
 * -------------------------------------------------------------------------------- *
 *                         x                    y                    z              *
 *                                                                                  *
 * Al              1      0.85426              0.81350              0.08096         *
 * Al              2     -0.80539             -0.01010             -0.77761         *
 * Al              3     -0.00291              0.86566             -0.79927         *
 * Al              4      0.64060             -0.68823              0.06627         *
 * Al              5     -0.71633             -0.74061             -1.62261         *
 * Al              6      0.03995             -0.11437             -0.01752         *
 * Al              7      0.73868             -0.86180             -0.21779         *
 * Al              8     -0.06603              0.67283             -0.80574         *
 * Al              9      0.79162             -0.79635             -0.02220         *
 * Al             10      0.81227              0.02643              0.78281         *
 * Al             11      0.08267             -0.01088             -0.11522         *
 * Al             12     -0.67672             -0.08265             -0.78738         *
 * Al             13     -0.80009              0.75502             -0.00495         *
 * Al             14      0.89124              0.01171              0.70468         *
 * Al             15      0.00879             -0.77988             -0.78211         *
 * Al             16      0.77715              0.67683             -0.05611         *
 * Al             17     -0.04154              1.49267              0.00345         *
 * Al             18      0.03550              0.77712             -0.88700         *
 * Al             19      0.88224              0.80455              1.49583         *
 * Al             20     -0.61247             -2.13657              1.43107         *
 * Al             21      0.50296             -0.16200              2.12922         *
 * Al             22     -1.60080              0.76282              0.70069         *
 * Al             23     -1.37354              2.13799              0.60963         *
 * Al             24      0.67727              0.80295              1.64367         *
 * Al             25      0.00487             -0.01670              0.02676         *
 * Al             26      0.13569             -0.05931              0.04813         *
 * Al             27      0.90099             -0.69704             -0.12832         *
 * Al             28      1.27652             -1.40731             -0.16973         *
 * Al             29     -0.77089             -0.71806              0.04180         *
 * Al             30     -1.62256             -0.78173              0.80248         *
 * Al             31      0.86942              0.77162              0.00709         *
 * Al             32     -0.75813              1.56326             -0.73029         *
 * Al             33     -0.05589             -0.72917             -0.66380         *
 * Al             34      1.63881             -1.45841              0.08022         *
 * Al             35      0.78312              1.50771             -0.75976         *
 * Al             36     -0.20710             -2.02671             -0.58019         *
 * Al             37     -1.36498              0.55895             -2.08344         *
 * Al             38     -0.04659              0.81261              0.76825         *
 * Al             39     -0.58227              0.67727              0.10482         *
 * Al             40      1.23307              2.09660             -0.45416         *
 * Al             41      0.78613             -0.12548              0.84572         *
 * Al             42     -0.02272             -1.57782             -0.02138         *
 * Al             43     -1.40268             -1.36453             -1.34177         *
 * Al             44     -0.03358             -0.02068              0.06899         *
 * Al             45      0.78915             -1.38012              0.71037         *
 * Al             46     -0.78143              1.53735             -0.76472         *
 * Al             47      0.76468             -0.59202              1.57851         *
 * Al             48     -1.64123              0.80729              0.67134         *
 * Al             49     -0.00769             -0.68535              0.73217         *
 * Al             50     -0.76958              0.79059              0.08934         *
 * Al             51      0.13563              0.82279              0.72700         *
 * Al             52     -0.80473             -0.74733             -0.04616         *
 * Al             53      0.67505             -0.75469             -0.05798         *
 * Al             54     -1.62131              0.74409              0.72115         *
 * Al             55      1.53455              0.06077             -0.08569         *
 * Al             56     -0.63411             -0.06018             -2.36371         *
 * Al             57     -0.00729             -0.09220             -1.52182         *
 * Al             58      0.84063             -0.10847              0.64370         *
 * Al             59     -0.82277             -0.04941             -0.75872         *
 * Al             60     -0.86733              1.37692              0.71364         *
 * Al             61      0.78062             -0.86273             -0.08197         *
 * Al             62      0.73971              0.74206              0.03994         *
 * Al             63     -0.68470             -0.89426             -0.00783         *
 * Al             64      0.78375             -2.25378              0.02767         *
 * Ni              1      0.01516              0.05965              0.10632         *
 * Ni              2     -0.03887              0.08196              0.01160         *
 * Ni              3      0.14047             -0.16915              0.22833         *
 * Ni              4     -0.18849              0.13211              0.08455         *
 * Ni              5      0.01671              0.04385             -0.12671         *
 * Ni              6     -0.00436              0.08836             -0.11662         *
 * Ni              7     -0.06583             -0.08209              0.06022         *
 * Ni              8      0.09386             -0.03994              0.13240         *
 * Ni              9      0.08442             -0.00036              0.08560         *
 * Ni             10     -0.07061              0.03611             -0.00433         *
 * Ni             11      0.21116              0.27769              0.20451         *
 * Ni             12     -0.02267             -0.02936              0.02446         *
 * Ni             13      0.12720             -0.01924              0.00330         *
 * Ni             14     -0.08700              0.06891              0.37155         *
 * Ni             15      0.05174             -0.21890             -0.15149         *
 * Ni             16     -0.27214              0.27668              0.07883         *
 * Ni             17      0.36090             -0.50120              0.20983         *
 * Ni             18     -0.01172              0.13639             -0.05763         *
 * Ni             19     -0.15611             -0.11131              0.16182         *
 * Ni             20     -0.14112              0.10106             -0.04607         *
 * Ni             21     -0.12376             -0.06782              0.10335         *
 * Ni             22      0.00009             -0.02593             -0.03936         *
 * Ni             23      0.26410             -0.20914             -0.09036         *
 * Ni             24     -0.01500              0.01388             -0.02677         *
 * Ni             25      0.14219              0.16705              0.10013         *
 * Ni             26     -0.10353             -0.12967              0.11250         *
 * Ni             27     -0.02530              0.06261              0.02796         *
 * Ni             28     -0.08440             -0.04179              0.01555         *
 * Ni             29     -0.07220             -0.15613              0.15936         *
 * Ni             30     -0.13039              0.24134             -0.13587         *
 * Ni             31     -0.49429             -0.11870              0.28322         *
 * Ni             32      0.17850             -0.03595              0.07038         *
 * Ni             33      0.15075              0.08925              0.04371         *
 * Ni             34      0.17436              0.12925             -0.02611         *
 * Ni             35     -0.03040             -0.01500              0.08325         *
 * Ni             36      0.08771              0.04019              0.00921         *
 * Ni             37     -0.11738             -0.11688              0.13734         *
 * Ni             38      0.02177             -0.11074             -0.03093         *
 * Ni             39     -0.14891              0.03213              0.19316         *
 * Ni             40     -0.13097              0.11725             -0.13942         *
 * Ni             41      0.39313              0.10121              0.36889         *
 * Ni             42     -0.13442             -0.17445             -0.22019         *
 * Ni             43      0.18464              0.05337              0.06384         *
 * Ni             44     -0.15701             -0.23225             -0.17453         *
 * Ni             45      0.01161              0.05148             -0.00866         *
 * Ni             46      0.03175             -0.03735              0.06285         *
 * Ni             47     -0.12434              0.08530              0.01343         *
 * Ni             48     -0.00334              0.04758             -0.03076         *
 * Ni             49     -0.11523              0.09087             -0.01851         *
 * Ni             50      0.04696             -0.10527              0.09990         *
 * Ni             51     -0.02279              0.15965             -0.09183         *
 * Ni             52     -0.34937              0.06574             -0.04524         *
 * Ni             53     -0.11382             -0.01050              0.11893         *
 * Ni             54      0.05172             -0.13070             -0.10676         *
 * Ni             55      0.17264             -0.16555             -0.10561         *
 * Ni             56      0.20807              0.04202             -0.10400         *
 * Ni             57      0.08808              0.07603              0.02664         *
 * Ni             58     -0.06133              0.00027             -0.23988         *
 * Ni             59      0.19396             -0.19115              0.04316         *
 * Ni             60     -0.01233             -0.04939              0.02142         *
 * Ni             61      0.03119             -0.13110             -0.04099         *
 * Ni             62      0.07873             -0.20479              0.23472         *
 * Ni             63      0.02827             -0.00145             -0.04446         *
 * Ni             64     -0.03758             -0.02500              0.02943         *
 * Ni             65     -0.08595             -0.02795             -0.09503         *
 * Ni             66     -0.04697              0.23500              0.00760         *
 * Ni             67      0.20028             -0.23748              0.10704         *
 * Ni             68      0.02892              0.27386             -0.02390         *
 * Ni             69     -0.00742              0.03379             -0.03501         *
 * Ni             70     -0.44994             -0.08455             -0.33561         *
 * Ni             71      0.01455             -0.02322              0.01215         *
 * Ni             72     -0.04761              0.13359              0.05927         *
 * Ni             73     -0.10044              0.04465             -0.02919         *
 * Ni             74      0.23051              0.01317              0.07898         *
 * Ni             75     -0.14389              0.16044              0.01640         *
 * Ni             76      0.19498              0.05509              0.36651         *
 * Ni             77     -0.07661              0.20720              0.03043         *
 * Ni             78      0.29799             -0.20535              0.32001         *
 * Ni             79     -0.06631             -0.06092             -0.09613         *
 * Ni             80     -0.29385             -0.18498              0.11680         *
 * Ni             81      0.03222              0.05340              0.03712         *
 * Ni             82     -0.00479              0.04600              0.02818         *
 * Ni             83     -0.08400             -0.02876              0.01979         *
 * Ni             84     -0.04992             -0.01587              0.04687         *
 * Ni             85     -0.05919             -0.08670              0.10152         *
 * Ni             86     -0.04449             -0.00596             -0.02744         *
 * Ni             87      0.04164             -0.16718              0.07684         *
 * Ni             88      0.09351             -0.02196             -0.02917         *
 * Ni             89     -0.09389              0.12127              0.05821         *
 * Ni             90     -0.02757              0.11390             -0.03857         *
 * Ni             91     -0.06479              0.07950             -0.07185         *
 * Ni             92      0.17376             -0.04637             -0.01788         *
 * Ni             93      0.08893             -0.02436             -0.10077         *
 * Ni             94      0.14245              0.02745              0.12669         *
 * Ni             95     -0.02510             -0.01407             -0.01672         *
 * Ni             96      0.00003             -0.01916             -0.01369         *
 * Ni             97      0.00342             -0.02168              0.00277         *
 * Ni             98     -0.05177             -0.00616              0.03978         *
 * Ni             99     -0.07379             -0.02639              0.02196         *
 * Ni            100      0.00105             -0.00612             -0.01279         *
 * Ni            101     -0.10761             -0.05957             -0.03168         *
 * Ni            102      0.22279              0.25365             -0.18801         *
 * Ni            103      0.07861             -0.02152             -0.06950         *
 * Ni            104     -0.01982             -0.00852              0.15314         *
 * Ni            105     -0.00913              0.08374              0.01573         *
 * Ni            106     -0.11529             -0.00152             -0.12961         *
 * Ni            107      0.07986             -0.12217              0.05586         *
 * Ni            108     -0.05690             -0.11176              0.04734         *
 * Ni            109      0.16567              0.01183             -0.01639         *
 * Ni            110     -0.03872              0.00520              0.00313         *
 * Ni            111     -0.18209              0.01356             -0.04262         *
 * Ni            112     -0.02889             -0.01453              0.05401         *
 * Ni            113     -0.00021             -0.08220              0.12125         *
 * Ni            114      0.11064             -0.10548              0.13924         *
 * Ni            115      0.12416              0.03161              0.00453         *
 * Ni            116      0.00984              0.14430              0.11358         *
 * Ni            117      0.02180             -0.01539              0.15229         *
 * Ni            118      0.04312              0.05620              0.12902         *
 * Ni            119      0.19128             -0.09570              0.05203         *
 * Ni            120      0.03229              0.08127             -0.07428         *
 * Ni            121      0.03529             -0.04813             -0.14809         *
 * Ni            122     -0.08168              0.15258              0.09244         *
 * Ni            123     -0.13977             -0.02364              0.13465         *
 * Ni            124     -0.08569             -0.06010             -0.07851         *
 * Ni            125     -0.02206             -0.01368             -0.02792         *
 * Ni            126     -0.01457              0.02879              0.04532         *
 * Ni            127      0.02887             -0.20656              0.02679         *
 * Ni            128     -0.22785             -0.03711              0.04027         *
 * Ni            129      0.04958             -0.26101              0.03754         *
 * Ni            130      0.16350              0.32434             -0.30018         *
 * Ni            131      0.09125             -0.05005             -0.03956         *
 * Ni            132     -0.03298              0.03474             -0.12918         *
 * Ni            133      0.00901              0.12234             -0.10661         *
 * Ni            134     -0.01246              0.09467             -0.14791         *
 * Ni            135     -0.06829              0.04797             -0.02363         *
 * Ni            136     -0.04287             -0.00093              0.02395         *
 * Ni            137     -0.02724              0.10789             -0.05707         *
 * Ni            138     -0.15655              0.04373             -0.09712         *
 * Ni            139     -0.13264             -0.06449             -0.19973         *
 * Ni            140      0.15636             -0.06451             -0.25456         *
 * Ni            141      0.20584              0.15201             -0.00444         *
 * Ni            142      0.09901              0.14453             -0.08224         *
 * Ni            143      0.20880             -0.12795             -0.05405         *
 * Ni            144     -0.21049             -0.28438             -0.26576         *
 * Ni            145      0.04159             -0.06560             -0.17606         *
 * Ni            146     -0.06237              0.07500             -0.10814         *
 * Ni            147      0.15151             -0.05836              0.07941         *
 * Ni            148      0.12600              0.03458              0.15227         *
 * Ni            149      0.09313             -0.08396             -0.00967         *
 * Ni            150     -0.11779              0.03019             -0.16010         *
 * Ni            151     -0.03407             -0.07760             -0.16146         *
 * Ni            152      0.01443             -0.11403             -0.04059         *
 * Ni            153     -0.03548              0.00414              0.19180         *
 * Ni            154      0.01382              0.08795              0.15009         *
 * Ni            155     -0.04702             -0.07184             -0.17621         *
 * Ni            156     -0.08912             -0.07416              0.00455         *
 * Ni            157     -0.22939             -0.06635              0.08926         *
 * Ni            158      0.21362              0.19537              0.06369         *
 * Ni            159     -0.06788             -0.03892             -0.25078         *
 * Ni            160     -0.22092             -0.04988             -0.13800         *
 * Ni            161      0.03057             -0.03637              0.04318         *
 * Ni            162     -0.00881              0.05893             -0.20294         *
 * Ni            163      0.12143              0.23620             -0.16917         *
 * Ni            164     -0.01678              0.01129             -0.18571         *
 * Ni            165     -0.01089             -0.07022              0.01608         *
 * Ni            166     -0.13008             -0.02301              0.00448         *
 * Ni            167      0.05630             -0.04277             -0.12051         *
 * Ni            168     -0.08134              0.16580             -0.10484         *
 * Ni            169     -0.07332             -0.07645              0.09601         *
 * Ni            170      0.07734             -0.05241              0.04267         *
 * Ni            171     -0.06661              0.17479              0.03819         *
 * Ni            172     -0.11867              0.12574              0.00213         *
 * Ni            173     -0.03483              0.02358              0.08228         *
 * Ni            174     -0.03406             -0.00941             -0.06965         *
 * Ni            175      0.19917             -0.21402             -0.12254         *
 * Ni            176      0.13932             -0.26809              0.04598         *
 * Ni            177      0.09735              0.00324             -0.20806         *
 * Ni            178      0.21439             -0.06091              0.07642         *
 * Ni            179      0.14695             -0.03571             -0.13606         *
 * Ni            180     -0.06569             -0.13429             -0.09725         *
 * Ni            181      0.09807             -0.00830             -0.18590         *
 * Ni            182      0.04377              0.18215             -0.13162         *
 * Ni            183      0.00930              0.13525              0.06875         *
 * Ni            184     -0.14658             -0.19686              0.31121         *
 * Ni            185      0.09275             -0.00030              0.02193         *
 * Ni            186     -0.01088             -0.00697             -0.02460         *
 * Ni            187     -0.08563              0.09031             -0.16739         *
 * Ni            188      0.05545              0.49118              0.32396         *
 * Ni            189     -0.20762              0.20475              0.06915         *
 * Ni            190     -0.06356             -0.02785             -0.07279         *
 * Ni            191     -0.28988              0.35043              0.16125         *
 * Ni            192      0.17626              0.01264             -0.06218         *
 *                                                                                  *
 ************************************************************************************
 
 ***************** Stress Tensor *****************
 *                                               *
 *          Cartesian components (GPa)           *
 * --------------------------------------------- *
 *             x             y             z     *
 *                                               *
 *  x     -0.119017      0.037000      0.654609  *
 *  y      0.037000      0.313372      0.345535  *
 *  z      0.654609      0.345535     -0.933571  *
 *                                               *
 *  Pressure:    0.2464                          *
 *                                               *
 *************************************************
 EXP precond LBFGS => estimated nearest neighbor distance :  2.555       A
 EXP precond LBFGS => estimated cutoff distance :  5.110       A
 
 ************************************** Forces **************************************
 *                                                                                  *
 *                           Cartesian components (eV/A)                            *
 * -------------------------------------------------------------------------------- *
 *                         x                    y                    z              *
 *                                                                                  *
 * Al              1      0.85426              0.81350              0.08096         *
 * Al              2     -0.80539             -0.01010             -0.77761         *
 * Al              3     -0.00291              0.86566             -0.79927         *
 * Al              4      0.64060             -0.68823              0.06627         *
 * Al              5     -0.71633             -0.74061             -1.62261         *
 * Al              6      0.03995             -0.11437             -0.01752         *
 * Al              7      0.73868             -0.86180             -0.21779         *
 * Al              8     -0.06603              0.67283             -0.80574         *
 * Al              9      0.79162             -0.79635             -0.02220         *
 * Al             10      0.81227              0.02643              0.78281         *
 * Al             11      0.08267             -0.01088             -0.11522         *
 * Al             12     -0.67672             -0.08265             -0.78738         *
 * Al             13     -0.80009              0.75502             -0.00495         *
 * Al             14      0.89124              0.01171              0.70468         *
 * Al             15      0.00879             -0.77988             -0.78211         *
 * Al             16      0.77715              0.67683             -0.05611         *
 * Al             17     -0.04154              1.49267              0.00345         *
 * Al             18      0.03550              0.77712             -0.88700         *
 * Al             19      0.88224              0.80455              1.49583         *
 * Al             20     -0.61247             -2.13657              1.43107         *
 * Al             21      0.50296             -0.16200              2.12922         *
 * Al             22     -1.60080              0.76282              0.70069         *
 * Al             23     -1.37354              2.13799              0.60963         *
 * Al             24      0.67727              0.80295              1.64367         *
 * Al             25      0.00487             -0.01670              0.02676         *
 * Al             26      0.13569             -0.05931              0.04813         *
 * Al             27      0.90099             -0.69704             -0.12832         *
 * Al             28      1.27652             -1.40731             -0.16973         *
 * Al             29     -0.77089             -0.71806              0.04180         *
 * Al             30     -1.62256             -0.78173              0.80248         *
 * Al             31      0.86942              0.77162              0.00709         *
 * Al             32     -0.75813              1.56326             -0.73029         *
 * Al             33     -0.05589             -0.72917             -0.66380         *
 * Al             34      1.63881             -1.45841              0.08022         *
 * Al             35      0.78312              1.50771             -0.75976         *
 * Al             36     -0.20710             -2.02671             -0.58019         *
 * Al             37     -1.36498              0.55895             -2.08344         *
 * Al             38     -0.04659              0.81261              0.76825         *
 * Al             39     -0.58227              0.67727              0.10482         *
 * Al             40      1.23307              2.09660             -0.45416         *
 * Al             41      0.78613             -0.12548              0.84572         *
 * Al             42     -0.02272             -1.57782             -0.02138         *
 * Al             43     -1.40268             -1.36453             -1.34177         *
 * Al             44     -0.03358             -0.02068              0.06899         *
 * Al             45      0.78915             -1.38012              0.71037         *
 * Al             46     -0.78143              1.53735             -0.76472         *
 * Al             47      0.76468             -0.59202              1.57851         *
 * Al             48     -1.64123              0.80729              0.67134         *
 * Al             49     -0.00769             -0.68535              0.73217         *
 * Al             50     -0.76958              0.79059              0.08934         *
 * Al             51      0.13563              0.82279              0.72700         *
 * Al             52     -0.80473             -0.74733             -0.04616         *
 * Al             53      0.67505             -0.75469             -0.05798         *
 * Al             54     -1.62131              0.74409              0.72115         *
 * Al             55      1.53455              0.06077             -0.08569         *
 * Al             56     -0.63411             -0.06018             -2.36371         *
 * Al             57     -0.00729             -0.09220             -1.52182         *
 * Al             58      0.84063             -0.10847              0.64370         *
 * Al             59     -0.82277             -0.04941             -0.75872         *
 * Al             60     -0.86733              1.37692              0.71364         *
 * Al             61      0.78062             -0.86273             -0.08197         *
 * Al             62      0.73971              0.74206              0.03994         *
 * Al             63     -0.68470             -0.89426             -0.00783         *
 * Al             64      0.78375             -2.25378              0.02767         *
 * Ni              1      0.01516              0.05965              0.10632         *
 * Ni              2     -0.03887              0.08196              0.01160         *
 * Ni              3      0.14047             -0.16915              0.22833         *
 * Ni              4     -0.18849              0.13211              0.08455         *
 * Ni              5      0.01671              0.04385             -0.12671         *
 * Ni              6     -0.00436              0.08836             -0.11662         *
 * Ni              7     -0.06583             -0.08209              0.06022         *
 * Ni              8      0.09386             -0.03994              0.13240         *
 * Ni              9      0.08442             -0.00036              0.08560         *
 * Ni             10     -0.07061              0.03611             -0.00433         *
 * Ni             11      0.21116              0.27769              0.20451         *
 * Ni             12     -0.02267             -0.02936              0.02446         *
 * Ni             13      0.12720             -0.01924              0.00330         *
 * Ni             14     -0.08700              0.06891              0.37155         *
 * Ni             15      0.05174             -0.21890             -0.15149         *
 * Ni             16     -0.27214              0.27668              0.07883         *
 * Ni             17      0.36090             -0.50120              0.20983         *
 * Ni             18     -0.01172              0.13639             -0.05763         *
 * Ni             19     -0.15611             -0.11131              0.16182         *
 * Ni             20     -0.14112              0.10106             -0.04607         *
 * Ni             21     -0.12376             -0.06782              0.10335         *
 * Ni             22      0.00009             -0.02593             -0.03936         *
 * Ni             23      0.26410             -0.20914             -0.09036         *
 * Ni             24     -0.01500              0.01388             -0.02677         *
 * Ni             25      0.14219              0.16705              0.10013         *
 * Ni             26     -0.10353             -0.12967              0.11250         *
 * Ni             27     -0.02530              0.06261              0.02796         *
 * Ni             28     -0.08440             -0.04179              0.01555         *
 * Ni             29     -0.07220             -0.15613              0.15936         *
 * Ni             30     -0.13039              0.24134             -0.13587         *
 * Ni             31     -0.49429             -0.11870              0.28322         *
[...]
            Ni 106 -- Ni 172                 0.07        2.60382
             Al 59 -- Ni 22                  0.18        2.60383
             Al 45 -- Ni 44                  0.16        2.60384
            Ni 155 -- Ni 168                 0.03        2.60463
             Al 59 -- Ni 19                  0.17        2.60472
            Ni 4   -- Ni 181                 0.01        2.60482
             Al 51 -- Ni 34                  0.20        2.60490
            Ni 76  -- Ni 79                  0.08        2.60564
            Ni 167 -- Ni 179                 0.07        2.60572
            Ni 32  -- Ni 94                  0.06        2.60594
            Ni 149 -- Ni 162                 0.08        2.60623
            Ni 54  -- Ni 105                 0.03        2.60652
             Al 8  -- Ni 29                  0.15        2.60661
            Ni 119 -- Ni 133                 0.01        2.60666
            Ni 26  -- Ni 182                 0.01        2.60694
            Ni 25  -- Ni 26                  0.02        2.60706
            Ni 1   -- Ni 3                   0.08        2.60714
            Ni 133 -- Ni 142                 0.04        2.60715
            Ni 11  -- Ni 151                 0.09        2.60725
            Ni 98  -- Ni 131                 0.04        2.60746
            Ni 55  -- Ni 105                 0.03        2.60774
            Ni 3   -- Ni 18                  0.03        2.60779
             Al 10 -- Al 55                  0.25        2.60781
             Al 17 -- Ni 140                 0.15        2.60808
            Ni 34  -- Ni 167                 0.01        2.60809
            Ni 7   -- Ni 19                 -0.01        2.60825
            Ni 90  -- Ni 91                 -0.06        2.60831
            Ni 60  -- Ni 72                  0.07        2.60834
             Al 2  -- Al 46                  0.24        2.60850
            Ni 11  -- Ni 155                 0.05        2.60881
            Ni 115 -- Ni 170                 0.04        2.60882
             Al 39 -- Ni 70                  0.18        2.60886
             Al 36 -- Ni 130                 0.18        2.60917
            Ni 29  -- Ni 41                  0.07        2.60956
            Ni 165 -- Ni 170                 0.04        2.60973
             Al 24 -- Ni 118                 0.19        2.60979
            Ni 62  -- Ni 67                  0.07        2.61003
            Ni 1   -- Ni 18                  0.01        2.61084
            Ni 63  -- Ni 67                  0.13        2.61193
            Ni 29  -- Ni 39                  0.04        2.61197
             Al 38 -- Ni 28                  0.19        2.61243
            Ni 20  -- Ni 21                  0.01        2.61246
            Ni 13  -- Ni 15                  0.06        2.61373
             Al 16 -- Ni 4                   0.18        2.61394
             Al 48 -- Ni 10                  0.19        2.61408
            Ni 58  -- Ni 117                -0.01        2.61410
            Ni 178 -- Ni 188                 0.07        2.61539
            Ni 29  -- Ni 176                 0.03        2.61546
             Al 13 -- Al 29                  0.25        2.61637
            Ni 3   -- Ni 158                 0.04        2.61639
             Al 52 -- Ni 31                  0.15        2.61646
             Al 19 -- Ni 71                  0.18        2.61676
            Ni 44  -- Ni 181                -0.00        2.61680
             Al 50 -- Ni 36                  0.17        2.61749
             Al 11 -- Ni 30                  0.12        2.61777
             Al 42 -- Ni 70                  0.16        2.61807
             Al 8  -- Al 52                  0.26        2.61812
             Al 1  -- Ni 192                 0.17        2.61824
             Al 39 -- Ni 108                 0.16        2.61853
             Al 1  -- Al 10                  0.24        2.61899
             Al 9  -- Al 10                  0.24        2.61911
             Al 27 -- Ni 105                 0.16        2.61971
            Ni 13  -- Ni 56                  0.05        2.61993
             Al 55 -- Ni 24                  0.15        2.62005
            Ni 136 -- Ni 140                 0.10        2.62015
            Ni 113 -- Ni 124                 0.05        2.62063
             Al 19 -- Ni 92                  0.17        2.62126
             Al 5  -- Ni 178                 0.16        2.62180
             Al 34 -- Ni 130                 0.18        2.62227
             Al 38 -- Ni 63                  0.16        2.62246
            Ni 42  -- Ni 93                  0.10        2.62251
             Al 12 -- Ni 171                 0.16        2.62268
            Ni 138 -- Ni 154                -0.02        2.62273
             Al 12 -- Ni 158                 0.16        2.62328
            Ni 7   -- Ni 160                -0.05        2.62340
            Ni 4   -- Ni 145                 0.01        2.62353
             Al 31 -- Ni 52                  0.19        2.62360
            Ni 189 -- Ni 192                 0.04        2.62394
             Al 59 -- Ni 11                  0.16        2.62453
             Al 48 -- Ni 90                  0.17        2.62471
             Al 2  -- Al 13                  0.22        2.62488
             Al 56 -- Ni 23                  0.21        2.62496
            Ni 138 -- Ni 139                 0.07        2.62496
            Ni 10  -- Ni 15                  0.05        2.62511
            Ni 161 -- Ni 177                 0.06        2.62532
             Al 31 -- Ni 139                 0.17        2.62532
             Al 28 -- Al 29                  0.24        2.62558
            Ni 128 -- Ni 142                 0.01        2.62583
            Ni 20  -- Ni 28                  0.03        2.62618
            Ni 22  -- Ni 167                 0.02        2.62635
            Ni 126 -- Ni 127                -0.05        2.62646
             Al 6  -- Ni 188                 0.20        2.62651
            Ni 20  -- Ni 160                -0.03        2.62673
            Ni 65  -- Ni 111                -0.03        2.62699
            Ni 20  -- Ni 163                 0.04        2.62712
            Ni 50  -- Ni 51                 -0.01        2.62713
             Al 39 -- Al 41                  0.25        2.62731
            Ni 148 -- Ni 150                 0.01        2.62749
            Ni 26  -- Ni 171                 0.01        2.62756
            Ni 68  -- Ni 114                 0.01        2.62769
            Ni 69  -- Ni 70                  0.07        2.62774
             Al 26 -- Al 27                  0.25        2.62774
            Ni 19  -- Ni 67                  0.11        2.62824
             Al 16 -- Ni 156                 0.17        2.62843
             Al 59 -- Ni 21                  0.15        2.62926
            Ni 164 -- Ni 167                 0.03        2.62977
            Ni 24  -- Ni 80                  0.07        2.62987
             Al 38 -- Ni 27                  0.16        2.63043
             Al 49 -- Ni 185                 0.16        2.63055
             Al 9  -- Ni 182                 0.16        2.63061
             Al 54 -- Ni 31                  0.16        2.63088
            Ni 63  -- Ni 76                  0.09        2.63098
            Ni 155 -- Ni 164                 0.05        2.63124
            Ni 31  -- Ni 32                 -0.02        2.63127
            Ni 54  -- Ni 118                -0.09        2.63208
             Al 8  -- Al 11                  0.24        2.63220
            Ni 10  -- Ni 57                  0.01        2.63283
             Al 40 -- Ni 54                  0.17        2.63300
             Al 15 -- Al 61                  0.25        2.63308
            Ni 6   -- Ni 87                 -0.00        2.63355
            Ni 31  -- Ni 34                  0.05        2.63378
             Al 64 -- Ni 70                  0.17        2.63465
             Al 1  -- Ni 33                  0.19        2.63467
            Ni 165 -- Ni 166                 0.04        2.63595
             Al 47 -- Ni 41                  0.18        2.63642
             Al 47 -- Ni 31                  0.18        2.63673
            Ni 10  -- Ni 53                  0.01        2.63718
             Al 41 -- Ni 1                   0.11        2.63811
            Ni 31  -- Ni 188                 0.07        2.63832
            Ni 138 -- Ni 189                 0.00        2.63924
            Ni 76  -- Ni 77                  0.03        2.64004
            Ni 75  -- Ni 76                  0.02        2.64010
            Ni 14  -- Ni 15                  0.05        2.64065
             Al 52 -- Al 53                  0.26        2.64115
            Ni 89  -- Ni 90                  0.02        2.64116
             Al 62 -- Ni 30                  0.11        2.64146
            Ni 21  -- Ni 67                  0.11        2.64178
            Ni 135 -- Ni 140                 0.08        2.64209
            Ni 52  -- Ni 105                 0.05        2.64225
             Al 26 -- Al 39                  0.25        2.64272
            Ni 16  -- Ni 17                  0.05        2.64356
             Al 32 -- Ni 144                 0.16        2.64417
             Al 17 -- Al 21                  0.23        2.64436
             Al 1  -- Al 2                   0.22        2.64452
             Al 29 -- Ni 153                 0.15        2.64456
             Al 9  -- Ni 184                 0.15        2.64473
            Ni 4   -- Ni 44                  0.07        2.64532
             Al 2  -- Ni 44                  0.15        2.64586
            Ni 128 -- Ni 129                 0.02        2.64617
             Al 15 -- Ni 3                   0.15        2.64624
            Ni 188 -- Ni 189                 0.08        2.64773
             Al 63 -- Ni 60                  0.14        2.64825
            Ni 141 -- Ni 144                 0.09        2.64880
            Ni 90  -- Ni 94                 -0.03        2.64905
            Ni 160 -- Ni 163                 0.09        2.64951
            Ni 127 -- Ni 130                 0.05        2.64960
            Ni 131 -- Ni 191                 0.08        2.64983
             Al 8  -- Ni 30                  0.14        2.64990
            Ni 100 -- Ni 102                 0.08        2.65033
            Ni 114 -- Ni 130                 0.09        2.65066
            Ni 188 -- Ni 190                 0.10        2.65229
            Ni 19  -- Ni 20                 -0.05        2.65270
            Ni 68  -- Ni 118                 0.02        2.65277
            Ni 21  -- Ni 22                 -0.06        2.65300
             Al 15 -- Ni 7                   0.14        2.65327
            Ni 113 -- Ni 114                -0.04        2.65338
            Ni 102 -- Ni 149                 0.11        2.65361
             Al 17 -- Ni 128                 0.16        2.65414
            Ni 77  -- Ni 79                 -0.02        2.65416
            Ni 65  -- Ni 66                 -0.01        2.65417
            Ni 11  -- Ni 15                  0.06        2.65443
             Al 50 -- Ni 185                 0.17        2.65496
             Al 14 -- Al 16                  0.25        2.65524
            Ni 119 -- Ni 142                -0.01        2.65605
             Al 4  -- Ni 186                 0.16        2.65628
            Ni 58  -- Ni 122                 0.03        2.65775
            Ni 158 -- Ni 159                 0.03        2.65818
             Al 51 -- Ni 23                  0.17        2.65844
             Al 7  -- Ni 177                 0.14        2.65908
            Ni 17  -- Ni 25                  0.02        2.66159
            Ni 119 -- Ni 129                 0.02        2.66180
            Ni 52  -- Ni 57                 -0.00        2.66188
             Al 42 -- Al 43                  0.24        2.66283
             Al 7  -- Ni 31                  0.17        2.66296
             Al 39 -- Ni 45                  0.12        2.66384
             Al 18 -- Ni 184                 0.15        2.66435
             Al 6  -- Al 7                   0.25        2.66436
             Al 59 -- Ni 9                   0.15        2.66482
            Ni 142 -- Ni 144                 0.06        2.66550
            Ni 139 -- Ni 141                 0.00        2.66570
            Ni 173 -- Ni 175                -0.01        2.66587
             Al 41 -- Al 58                  0.24        2.66608
             Al 56 -- Al 57                  0.22        2.66666
            Ni 141 -- Ni 189                -0.03        2.66732
             Al 4  -- Ni 185                 0.13        2.66740
             Al 31 -- Al 32                  0.24        2.66882
             Al 42 -- Al 64                  0.23        2.66903
             Al 33 -- Al 36                  0.20        2.66958
            Ni 176 -- Ni 190                 0.06        2.67025
             Al 11 -- Al 12                  0.23        2.67049
             Al 16 -- Ni 14                  0.17        2.67281
            Ni 102 -- Ni 154                 0.04        2.67370
             Al 53 -- Ni 79                  0.14        2.67524
            Ni 22  -- Ni 34                  0.04        2.67547
            Ni 41  -- Ni 187                 0.04        2.67561
             Al 31 -- Ni 90                  0.16        2.67596
             Al 47 -- Al 54                  0.23        2.67957
             Al 27 -- Ni 104                 0.14        2.68004
             Al 61 -- Al 63                  0.20        2.68030
             Al 45 -- Al 47                  0.23        2.68244
            Ni 184 -- Ni 191                 0.08        2.68334
            Ni 78  -- Ni 94                 -0.05        2.68339
            Ni 188 -- Ni 192                -0.00        2.68357
             Al 53 -- Ni 78                  0.17        2.68364
            Ni 66  -- Ni 68                 -0.06        2.68478
             Al 29 -- Ni 105                 0.14        2.68505
             Al 38 -- Al 62                  0.23        2.68520
             Al 29 -- Ni 104                 0.14        2.68575
             Al 55 -- Al 57                  0.23        2.68592
             Al 30 -- Al 43                  0.22        2.68677
             Al 4  -- Al 49                  0.23        2.68960
             Al 11 -- Al 61                  0.19        2.68994
             Al 46 -- Al 48                  0.23        2.69280
            Ni 65  -- Ni 114                -0.15        2.69344
             Al 32 -- Al 37                  0.23        2.69407
            Ni 174 -- Ni 176                -0.02        2.69546
             Al 41 -- Ni 16                  0.14        2.69650
            Ni 17  -- Ni 157                 0.06        2.69761
            Ni 115 -- Ni 130                 0.06        2.70007
             Al 1  -- Al 45                  0.20        2.70140
            Ni 41  -- Ni 176                 0.05        2.70294
             Al 59 -- Al 60                  0.22        2.70433
             Al 49 -- Al 50                  0.22        2.70561
             Al 13 -- Al 27                  0.20        2.70577
             Al 17 -- Ni 126                 0.13        2.70678
            Ni 23  -- Ni 66                  0.01        2.70679
             Al 9  -- Al 18                  0.22        2.70820
             Al 57 -- Ni 16                  0.14        2.70944
             Al 51 -- Al 55                  0.22        2.71048
             Al 6  -- Al 17                  0.24        2.71147
            Ni 32  -- Ni 33                  0.03        2.71366
             Al 33 -- Al 34                  0.21        2.71513
            Ni 17  -- Ni 171                 0.05        2.71766
            Ni 111 -- Ni 113                -0.04        2.72146
             Al 57 -- Al 58                  0.19        2.72510
             Al 58 -- Al 64                  0.20        2.72525
             Al 32 -- Al 35                  0.21        2.72580
             Al 54 -- Ni 78                  0.12        2.72752
             Al 2  -- Al 14                  0.17        2.72774
             Al 62 -- Al 63                  0.19        2.72780
             Al 19 -- Al 35                  0.17        2.72786
             Al 33 -- Al 35                  0.16        2.72989
             Al 55 -- Ni 33                  0.12        2.72992
             Al 61 -- Al 62                  0.19        2.73019
             Al 8  -- Ni 20                  0.12        2.73219
             Al 20 -- Al 36                  0.22        2.73324
             Al 1  -- Al 5                   0.19        2.73608
             Al 22 -- Al 37                  0.19        2.73736
             Al 7  -- Al 52                  0.19        2.74090
             Al 42 -- Al 60                  0.17        2.74485
             Al 13 -- Al 14                  0.18        2.74541
             Al 51 -- Al 57                  0.18        2.74640
             Al 52 -- Al 54                  0.19        2.75054
            Ni 78  -- Ni 91                 -0.04        2.75124
             Al 3  -- Al 4                   0.20        2.75721
             Al 23 -- Al 24                  0.18        2.76731
             Al 20 -- Al 21                  0.21        2.76821
            Ni 68  -- Ni 70                  0.01        2.76915
             Al 28 -- Al 40                  0.23        2.76916
             Al 21 -- Al 35                  0.16        2.77476
             Al 21 -- Al 36                  0.22        2.78075
             Al 36 -- Al 37                  0.22        2.78303
             Al 23 -- Al 30                  0.17        2.78377
             Al 34 -- Al 35                  0.17        2.78652
             Al 56 -- Al 60                  0.17        2.78805
             Al 55 -- Ni 179                 0.09        2.79144
             Al 28 -- Al 43                  0.22        2.79202
             Al 2  -- Al 45                  0.16        2.79778
             Al 24 -- Al 28                  0.17        2.80145
             Al 40 -- Al 42                  0.17        2.80826
            Ni 31  -- Ni 178                 0.06        2.80856
             Al 20 -- Al 22                  0.17        2.81356
             Al 19 -- Al 34                  0.15        2.81498
             Al 56 -- Al 64                  0.15        2.81912
             Al 53 -- Al 54                  0.17        2.82635
             Al 5  -- Al 10                  0.14        2.83337
             Al 47 -- Al 48                  0.13        2.84106
             Al 23 -- Al 40                  0.16        2.85143
             Al 56 -- Al 58                  0.17        2.85175
             Al 46 -- Al 47                  0.13        2.85465
             Al 23 -- Al 43                  0.16        2.86678
             Al 21 -- Al 32                  0.13        2.87035
             Al 21 -- Al 37                  0.21        2.87378
             Al 60 -- Al 64                  0.13        2.87812
             Al 35 -- Al 36                  0.14        2.88811
             Al 45 -- Al 46                  0.11        2.89059
             Al 23 -- Al 28                  0.14        2.91895
             Al 20 -- Al 37                  0.09        2.99609
======================================================================
 

Writing analysis data to castep.castep_bin

Writing model to castep.check
 
 A BibTeX formatted list of references used in this run has been written to 
 castep.bib
 
Initialisation time =     12.90 s
Calculation time    =  31423.82 s
Finalisation time   =      3.32 s
Total time          =  31440.05 s
Peak Memory Use     = 8370192 kB
  
Overall parallel efficiency rating: Good (78%)                                  
  
Data was distributed by:-
G-vector (48-way); efficiency rating: Good (79%)                                
