 +-------------------------------------------------+
 |                                                 |
 |      CCC   AA    SSS  TTTTT  EEEEE  PPPP        |
 |     C     A  A  S       T    E      P   P       |
 |     C     AAAA   SS     T    EEE    PPPP        |
 |     C     A  A     S    T    E      P           |
 |      CCC  A  A  SSS     T    EEEEE  P           |
 |                                                 |
 +-------------------------------------------------+
 |                                                 |
 | Welcome to Academic Release CASTEP version 20.11|          
 | Ab Initio Total Energy Program                  |
 |                                                 |
 | Authors:                                        |
 | M. Segall, M. Probert, C. Pickard, P. Hasnip,   |
 | S. Clark, K. Refson, J. R. Yates, M. Payne      |
 |                                                 |
 | Contributors:                                   |
 | P. Lindan, P. Haynes, J. White, V. Milman,      |
 | N. Govind, M. Gibson, P. Tulip, V. Cocula,      |
 | B. Montanari, D. Quigley, M. Glover,            |
 | L. Bernasconi, A. Perlov, M. Plummer,           |
 | E. McNellis, J. Meyer, J. Gale, D. Jochym       |
 | J. Aarons, B. Walker, R. Gillen, D. Jones       |
 | T. Green, I. J. Bush, C. J. Armstrong,          |
 | E. J. Higgins, E. L. Brown, M. S. McFly,        |
 | J. Wilkins, B-C. Shih, P. J. P. Byrne,          |
 | R. J. Maurer, J. C. Womack, J. Dziedzic,        |
 | J. R. Kermode, A. Bartok-Partay                 |
 |                                                 |
 | Copyright (c) 2000 - 2020                       |
 |                                                 |
 |     Distributed under license from Cambridge    |
 |     Enterprise for academic use only.           |
 |                                                 |
 | Please cite                                     |
 |                                                 |
 |     "First principles methods using CASTEP"     |
 |                                                 |
 |         Zeitschrift fuer Kristallographie       |
 |           220(5-6) pp. 567-570 (2005)           |
 |                                                 |
 | S. J. Clark, M. D. Segall, C. J. Pickard,       |
 | P. J. Hasnip, M. J. Probert, K. Refson,         |
 | M. C. Payne                                     |
 |                                                 |
 |       in all publications arising from          |
 |              your use of CASTEP                 |
 |                                                 |
 +-------------------------------------------------+
 |                                                 |
 |              http://www.castep.org              |
 |                                                 |
 +-------------------------------------------------+
 
 
 
 Compiled for linux_x86_64_ifort on Wed, 25 Aug 2021 18:50:38 +0100
 from code version e772bf432+  HEAD  Sat Apr 3 17:41:32 2021 +0100
 Compiler: Intel Fortran 19.0.5.281; Optimisation: fast
 MATHLIBS: Intel MKL(2019.0.5) (LAPACK version 3.7.0)
 FFT Lib : mkl
 Fundamental constants values: CODATA 2014
 
 Run started: Thu, 09 Mar 2023 12:53:50 +0000
 
 Atomic calculation performed for Al: 1s2 2s2 2p6 3s2 3p1
 
 Converged in 52 iterations to an ae energy of -6606.982 eV
 
   ============================================================                
   | Pseudopotential Report - Date of generation  9-03-2023   |                
   ------------------------------------------------------------                
   | Element: Al Ionic charge:  3.00 Level of theory: RPBE    |                
   | Atomic Solver: Koelling-Harmon                           |                
   |                                                          |                
   |               Reference Electronic Structure             |                
   |         Orbital         Occupation         Energy        |                
   |            3s              2.000           -0.284        |                
   |            3p              1.000           -0.100        |                
   |                                                          |                
   |                 Pseudopotential Definition               |                
   |        Beta     l      e      Rc     scheme   norm       |                
   |          1      0   -0.284   2.192     qc      0         |                
   |          2      0    0.250   2.192     qc      0         |                
   |          3      1   -0.100   2.192     qc      0         |                
   |          4      1    0.250   2.192     qc      0         |                
   |          5      2    0.000   2.000     qc      0         |                
   |          6      2    0.250   2.000     qc      0         |                
   |         loc     3    0.000   2.192     pn      0         |                
   |                                                          |                
   | Augmentation charge Rinner = 1.398                       |                
   | Partial core correction Rc = 1.398                       |                
   ------------------------------------------------------------                
   | "3|2.2|2.2|1.4|4|5|5|30:31:32U2U2"                       |                
   ------------------------------------------------------------                
   |      Author: Chris J. Pickard, Cambridge University      |                
   ============================================================                
 
 Atomic calculation performed for Ni: 1s2 2s2 2p6 3s2 3p6 3d8 4s2
 
 Converged in 109 iterations to an ae energy of -41381.414 eV
 
   ============================================================                
   | Pseudopotential Report - Date of generation  9-03-2023   |                
   ------------------------------------------------------------                
   | Element: Ni Ionic charge: 10.00 Level of theory: RPBE    |                
   | Atomic Solver: Koelling-Harmon                           |                
   |                                                          |                
   |               Reference Electronic Structure             |                
   |         Orbital         Occupation         Energy        |                
   |            3d              8.000           -0.324        |                
   |            4s              2.000           -0.204        |                
   |                                                          |                
   |                 Pseudopotential Definition               |                
   |        Beta     l      e      Rc     scheme   norm       |                
   |          1      0   -0.204   2.401     qc      0         |                
   |          2      0    0.250   2.401     qc      0         |                
   |          3      1    0.000   2.401     qc      0         |                
   |          4      1    0.250   2.401     qc      0         |                
   |          5      2   -0.324   1.999     qc      0         |                
   |          6      2    0.250   1.999     qc      0         |                
   |         loc     3    0.000   2.401     pn      0         |                
   |                                                          |                
   | Augmentation charge Rinner = 1.001                       |                
   | Partial core correction Rc = 1.001                       |                
   ------------------------------------------------------------                
   | "3|2.4|2.4|1.0|8|9|10|40:41:32U2U2(qc=5.5)"              |                
   ------------------------------------------------------------                
   |      Author: Chris J. Pickard, Cambridge University      |                
   ============================================================                
 
 Pseudo atomic calculation performed for Al 3s2 3p1
 
 Converged in 13 iterations to a total energy of -107.6592 eV
 
 Pseudo atomic calculation performed for Ni 3d8 4s2
 
 Converged in 41 iterations to a total energy of -1369.7891 eV
 Calculation parallelised over 48 processes.
 Data is distributed by G-vector(48-way)

 ************************************ Title ************************************
 

 ***************************** General Parameters ******************************
  
 output verbosity                               : normal  (1)
 write checkpoint data to                       : castep.check
 type of calculation                            : geometry optimization
 stress calculation                             : off
 density difference calculation                 : off
 electron localisation func (ELF) calculation   : off
 Hirshfeld analysis                             : off
 molecular orbital projected DOS                : off
 deltaSCF calculation                           : off
 unlimited duration calculation
 timing information                             : on
 memory usage estimate                          : on
 write extra output files                       : on
 write final potential to formatted file        : off
 write final density to formatted file          : off
 write BibTeX reference list                    : on
 write OTFG pseudopotential files               : on
 write electrostatic potential file             : on
 write bands file                               : on
 checkpoint writing                             : both castep_bin and check files
  
 output         length unit                     : A
 output           mass unit                     : amu
 output           time unit                     : ps
 output         charge unit                     : e
 output           spin unit                     : hbar/2
 output         energy unit                     : eV
 output          force unit                     : eV/A
 output       velocity unit                     : A/ps
 output       pressure unit                     : GPa
 output     inv_length unit                     : 1/A
 output      frequency unit                     : cm-1
 output force constant unit                     : eV/A**2
 output         volume unit                     : A**3
 output   IR intensity unit                     : (D/A)**2/amu
 output         dipole unit                     : D
 output         efield unit                     : eV/A/e
 output        entropy unit                     : J/mol/K
 output    efield chi2 unit                     : pm/V
  
 wavefunctions paging                           : none
 random number generator seed                   : randomised (125350896)
 data distribution                              : optimal for this architecture
 optimization strategy                          : maximize speed(+++)

 *********************** Exchange-Correlation Parameters ***********************
  
 using functional                               : revised Perdew Burke Ernzerhof
 relativistic treatment                         : Koelling-Harmon
 DFT+D: Semi-empirical dispersion correction    : off

 ************************* Pseudopotential Parameters **************************
  
 pseudopotential representation                 : reciprocal space
 <beta|phi> representation                      : reciprocal space
 spin-orbit coupling                            : off

 **************************** Basis Set Parameters *****************************
  
 plane wave basis set cut-off                   :   900.0000   eV
 size of standard grid                          :     1.7500
 size of   fine   gmax                          :    26.8966   1/A
 finite basis set correction                    : none

 **************************** Electronic Parameters ****************************
  
 number of  electrons                           :  2109.    
 net charge of system                           :  0.000    
 net spin   of system                           :  1.000    
 number of  up  spins                           :  1055.    
 number of down spins                           :  1054.    
 treating system as spin-polarized
 number of bands                                :       1167

 ********************* Electronic Minimization Parameters **********************
  
 Method: Treating system as metallic with density mixing treatment of electrons,
         and number of  SD  steps               :          1
         and number of  CG  steps               :          4
  
 total energy / atom convergence tol.           : 0.1000E-05   eV
 eigen-energy convergence tolerance             : 0.2185E-06   eV
 max force / atom convergence tol.              : ignored
 convergence tolerance window                   :          3   cycles
 max. number of SCF cycles                      :        200
 number of fixed-spin iterations                :         10
 smearing scheme                                : Gaussian
 smearing width                                 : 0.2000       eV
 Fermi energy convergence tolerance             : 0.2721E-13   eV
 periodic dipole correction                     : NONE
 periodically dump wavefunctions to             : castep.wvfn
 dump wavefunctions every                       :          1   SCF cycles

 ************************** Density Mixing Parameters **************************
  
 density-mixing scheme                          : Pulay
 max. length of mixing history                  :         20
 charge density mixing amplitude                : 0.8000    
   spin density mixing amplitude                :  2.000    
 cut-off energy for mixing                      :  900.0       eV

 *********************** Population Analysis Parameters ************************
  
 Population analysis with cutoff                :  3.000       A
 Population analysis output                     : summary and pdos components

 ********************** Geometry Optimization Parameters ***********************
  
 optimization method                            : LBFGS
 max. no. of LBFGS updates                      : unbounded
 variable cell method                           : fixed basis quality
 max. number of steps                           :         30
 estimated bulk modulus                         :  500.0       GPa
 estimated <frequency>                          :  1668.       cm-1
 geom line minimiser                            : on
 with line minimiser tolerance                  :     0.4000
  with spin fully able to relax for all steps
 total energy convergence tolerance             : 0.2000E-04   eV/atom
        max ionic |force| tolerance             : 0.5000E-01   eV/A
 max ionic |displacement| tolerance             : 0.1000E-02   A
   max |stress component| tolerance             : 0.1000       GPa
 convergence tolerance window                   :          2   steps
 backup results every                           :          5   steps
 write geom trajectory file                     : on

 *******************************************************************************
  
 
                           -------------------------------
                                      Unit Cell
                           -------------------------------
        Real Lattice(A)                      Reciprocal Lattice(1/A)
    14.4648280     0.0000000     0.0000000        0.434376773   0.000000000   0.000000000
     0.0000000    14.4648280     0.0000000        0.000000000   0.434376773   0.000000000
     0.0000000     0.0000000    14.4648280        0.000000000   0.000000000   0.434376773
 
                       Lattice parameters(A)       Cell Angles
                    a =     14.464828          alpha =   90.000000
                    b =     14.464828          beta  =   90.000000
                    c =     14.464828          gamma =   90.000000
 
                       Current cell volume =          3026.494030       A**3
                                   density =             4.285146   AMU/A**3
                                           =             7.115653     g/cm^3
 
                           -------------------------------
                                     Cell Contents
                           -------------------------------
                         Total number of ions in cell =  255
                      Total number of species in cell =    2
                        Max number of any one species =  192
 
            xxxxxxxxxxxxxxxxxxxxxxxxxxxxxxxxxxxxxxxxxxxxxxxxxxxxxxxxxxxx
            x  Element    Atom        Fractional coordinates of atoms  x
            x            Number           u          v          w      x
            x----------------------------------------------------------x
            x  Al           1         0.569667   0.308785   0.562629   x 
            x  Al           2         0.817684   0.309214   0.561962   x 
            x  Al           3         0.569106   0.560196   0.562061   x 
            x  Al           4         0.817922   0.558883   0.562124   x 
            x  Al           5         0.574071   0.809857   0.556836   x 
            x  Al           6         0.819111   0.809037   0.560840   x 
            x  Al           7         0.570317   0.057900   0.561940   x 
            x  Al           8         0.818902   0.059416   0.561032   x 
            x  Al           9         0.568726   0.306847   0.810238   x 
            x  Al          10         0.817149   0.308950   0.811386   x 
            x  Al          11         0.569004   0.561238   0.810105   x 
            x  Al          12         0.817039   0.559176   0.811275   x 
            x  Al          13         0.576109   0.811257   0.812007   x 
            x  Al          14         0.818720   0.809158   0.811510   x 
            x  Al          15         0.572148   0.056850   0.807760   x 
            x  Al          16         0.818691   0.059061   0.811320   x 
            x  Al          17         0.571754   0.307514   0.060832   x 
            x  Al          18         0.817204   0.309512   0.060837   x 
            x  Al          19         0.571135   0.560048   0.059835   x 
            x  Al          20         0.817091   0.558514   0.060903   x 
            x  Al          21         0.574501   0.809355   0.065377   x 
            x  Al          22         0.819253   0.808781   0.062014   x 
            x  Al          23         0.575908   0.057995   0.067278   x 
            x  Al          24         0.819030   0.059368   0.061831   x 
            x  Al          25         0.571642   0.309320   0.312723   x 
            x  Al          26         0.817896   0.309544   0.312071   x 
            x  Al          27         0.572531   0.558934   0.313160   x 
            x  Al          28         0.817833   0.558372   0.311676   x 
            x  Al          29         0.571811   0.809150   0.311347   x 
            x  Al          30         0.819713   0.808650   0.311726   x 
            x  Al          31         0.571544   0.058759   0.310814   x 
            x  Al          32         0.819555   0.059838   0.312234   x 
            x  Al          33         0.328492   0.183296   0.432710   x 
            x  Al          34         0.056391   0.057595   0.306209   x 
            x  Al          35         0.192859   0.190599   0.303712   x 
            x  Al          36         0.321561   0.934101   0.436662   x 
            x  Al          37         0.192417   0.929098   0.302296   x 
            x  Al          38         0.326024   0.558945   0.562288   x 
            x  Al          39         0.072837   0.688440   0.428489   x 
            x  Al          40         0.198437   0.189836   0.072212   x 
            x  Al          41         0.066360   0.805758   0.064250   x 
            x  Al          42         0.323689   0.674091   0.195486   x 
            x  Al          43         0.193396   0.667611   0.062634   x 
            x  Al          44         0.330074   0.437577   0.189501   x 
            x  Al          45         0.318123   0.686717   0.427308   x 
            x  Al          46         0.190009   0.433894   0.055972   x 
            x  Al          47         0.062084   0.435837   0.188072   x 
            x  Al          48         0.317628   0.060201   0.810839   x 
            x  Al          49         0.439265   0.057353   0.944028   x 
            x  Al          50         0.186956   0.054379   0.683215   x 
            x  Al          51         0.068514   0.184853   0.940572   x 
            x  Al          52         0.432905   0.810248   0.937421   x 
            x  Al          53         0.071346   0.945621   0.940993   x 
            x  Al          54         0.201099   0.808101   0.931688   x 
            x  Al          55         0.325163   0.564721   0.807361   x 
            x  Al          56         0.329392   0.428239   0.936902   x 
            x  Al          57         0.184112   0.423692   0.810987   x 
            x  Al          58         0.187454   0.187011   0.555227   x 
            x  Al          59         0.433604   0.811587   0.685829   x 
            x  Al          60         0.191993   0.810678   0.685241   x 
            x  Al          61         0.187522   0.424597   0.553999   x 
            x  Al          62         0.194854   0.434586   0.321520   x 
            x  Al          63         0.180037   0.565919   0.682547   x 
            x  Ni           1         0.567806   0.433350   0.686803   x 
            x  Ni           2         0.693197   0.308434   0.686682   x 
            x  Ni           3         0.693018   0.434324   0.562445   x 
            x  Ni           4         0.817103   0.434404   0.686872   x 
            x  Ni           5         0.941853   0.309468   0.686677   x 
            x  Ni           6         0.942180   0.434264   0.561851   x 
            x  Ni           7         0.567427   0.689689   0.684801   x 
            x  Ni           8         0.691748   0.560255   0.686444   x 
            x  Ni           9         0.694561   0.684065   0.561110   x 
            x  Ni          10         0.818292   0.683918   0.686432   x 
            x  Ni          11         0.942154   0.559045   0.686689   x 
            x  Ni          12         0.942578   0.683704   0.561448   x 
            x  Ni          13         0.567224   0.930715   0.684749   x 
            x  Ni          14         0.695584   0.809789   0.685258   x 
            x  Ni          15         0.695096   0.934541   0.560341   x 
            x  Ni          16         0.819361   0.934283   0.685892   x 
            x  Ni          17         0.942568   0.808774   0.686293   x 
            x  Ni          18         0.943137   0.934007   0.561126   x 
            x  Ni          19         0.567474   0.183002   0.685744   x 
            x  Ni          20         0.694197   0.058046   0.685341   x 
            x  Ni          21         0.693347   0.183656   0.561489   x 
            x  Ni          22         0.818058   0.183885   0.686318   x 
            x  Ni          23         0.942827   0.059259   0.686287   x 
            x  Ni          24         0.942668   0.184610   0.561557   x 
            x  Ni          25         0.448951   0.433327   0.060795   x 
            x  Ni          26         0.691809   0.307930   0.935211   x 
            x  Ni          27         0.692029   0.434102   0.811067   x 
            x  Ni          28         0.816696   0.434081   0.935834   x 
            x  Ni          29         0.941783   0.309490   0.936354   x 
            x  Ni          30         0.941651   0.434301   0.811532   x 
            x  Ni          31         0.566882   0.688422   0.937364   x 
            x  Ni          32         0.691806   0.559880   0.935326   x 
            x  Ni          33         0.693724   0.684660   0.811310   x 
            x  Ni          34         0.818122   0.683900   0.936346   x 
            x  Ni          35         0.941791   0.558945   0.936408   x 
            x  Ni          36         0.942275   0.683891   0.811534   x 
            x  Ni          37         0.566546   0.933699   0.938635   x 
            x  Ni          38         0.694959   0.810119   0.937560   x 
            x  Ni          39         0.695532   0.934595   0.811373   x 
            x  Ni          40         0.819472   0.934336   0.936813   x 
            x  Ni          41         0.942649   0.808758   0.936718   x 
            x  Ni          42         0.942825   0.933956   0.811446   x 
            x  Ni          43         0.567575   0.179350   0.936824   x 
            x  Ni          44         0.693608   0.057850   0.936759   x 
            x  Ni          45         0.693404   0.182827   0.811066   x 
            x  Ni          46         0.817981   0.183889   0.936123   x 
            x  Ni          47         0.942992   0.059303   0.936642   x 
            x  Ni          48         0.942243   0.184360   0.811421   x 
            x  Ni          49         0.569356   0.434050   0.186694   x 
            x  Ni          50         0.693904   0.309349   0.186688   x 
            x  Ni          51         0.692229   0.433908   0.060233   x 
            x  Ni          52         0.817510   0.434051   0.186130   x 
            x  Ni          53         0.942327   0.309830   0.186393   x 
            x  Ni          54         0.941815   0.434290   0.061219   x 
            x  Ni          55         0.569678   0.683967   0.187207   x 
            x  Ni          56         0.693356   0.558622   0.186290   x 
            x  Ni          57         0.694768   0.683892   0.061555   x 
            x  Ni          58         0.818719   0.683116   0.186652   x 
            x  Ni          59         0.942146   0.558659   0.186369   x 
            x  Ni          60         0.942279   0.683469   0.061587   x 
            x  Ni          61         0.569899   0.932978   0.188416   x 
            x  Ni          62         0.696265   0.808717   0.187968   x 
            x  Ni          63         0.696303   0.933876   0.062772   x 
            x  Ni          64         0.820024   0.934141   0.187310   x 
            x  Ni          65         0.943053   0.808514   0.186727   x 
            x  Ni          66         0.943168   0.934062   0.061885   x 
            x  Ni          67         0.570081   0.184263   0.187587   x 
            x  Ni          68         0.696547   0.059241   0.188398   x 
            x  Ni          69         0.695081   0.184014   0.061604   x 
            x  Ni          70         0.818870   0.184962   0.187012   x 
            x  Ni          71         0.943211   0.059562   0.186731   x 
            x  Ni          72         0.942290   0.184703   0.061488   x 
            x  Ni          73         0.568468   0.434604   0.438211   x 
            x  Ni          74         0.693089   0.308957   0.437761   x 
            x  Ni          75         0.693760   0.433909   0.312263   x 
            x  Ni          76         0.817862   0.433924   0.437261   x 
            x  Ni          77         0.942588   0.309652   0.436733   x 
            x  Ni          78         0.942142   0.434228   0.311547   x 
            x  Ni          79         0.569346   0.684676   0.435853   x 
            x  Ni          80         0.694062   0.558926   0.437638   x 
            x  Ni          81         0.694937   0.683493   0.311734   x 
            x  Ni          82         0.818880   0.683436   0.436531   x 
            x  Ni          83         0.942361   0.558747   0.436660   x 
            x  Ni          84         0.942749   0.683277   0.311533   x 
            x  Ni          85         0.568623   0.934522   0.434882   x 
            x  Ni          86         0.695876   0.809251   0.435219   x 
            x  Ni          87         0.695734   0.934283   0.311956   x 
            x  Ni          88         0.819592   0.934559   0.436258   x 
            x  Ni          89         0.943035   0.808680   0.436363   x 
            x  Ni          90         0.943609   0.934124   0.311653   x 
            x  Ni          91         0.567541   0.182958   0.437011   x 
            x  Ni          92         0.694034   0.059368   0.436372   x 
            x  Ni          93         0.694254   0.184557   0.312543   x 
            x  Ni          94         0.818579   0.184600   0.436931   x 
            x  Ni          95         0.943500   0.059527   0.436472   x 
            x  Ni          96         0.943083   0.184971   0.311687   x 
            x  Ni          97         0.067851   0.429622   0.682307   x 
            x  Ni          98         0.190965   0.306125   0.683010   x 
            x  Ni          99         0.063125   0.304754   0.556704   x 
            x  Ni         100         0.310523   0.437333   0.685696   x 
            x  Ni         101         0.441939   0.307400   0.686452   x 
            x  Ni         102         0.314743   0.683641   0.683007   x 
            x  Ni         103         0.319437   0.308039   0.560114   x 
            x  Ni         104         0.062985   0.561688   0.554188   x 
            x  Ni         105         0.063129   0.689284   0.684643   x 
            x  Ni         106         0.316450   0.809315   0.808922   x 
            x  Ni         107         0.445564   0.561791   0.685855   x 
            x  Ni         108         0.443909   0.687262   0.559600   x 
            x  Ni         109         0.192050   0.685575   0.557518   x 
            x  Ni         110         0.066687   0.934179   0.684062   x 
            x  Ni         111         0.317332   0.808856   0.558200   x 
            x  Ni         112         0.191003   0.935239   0.555830   x 
            x  Ni         113         0.314294   0.936511   0.683344   x 
            x  Ni         114         0.445308   0.689474   0.810697   x 
            x  Ni         115         0.443789   0.933546   0.560645   x 
            x  Ni         116         0.065690   0.180433   0.682447   x 
            x  Ni         117         0.315829   0.061142   0.558015   x 
            x  Ni         118         0.067439   0.058210   0.554231   x 
            x  Ni         119         0.314299   0.180689   0.683809   x 
            x  Ni         120         0.442222   0.056728   0.686118   x 
            x  Ni         121         0.443859   0.183135   0.561943   x 
            x  Ni         122         0.193349   0.060528   0.426740   x 
            x  Ni         123         0.064153   0.430739   0.936747   x 
            x  Ni         124         0.193347   0.307157   0.938461   x 
            x  Ni         125         0.062532   0.302952   0.810693   x 
            x  Ni         126         0.447274   0.305020   0.935463   x 
            x  Ni         127         0.442854   0.433609   0.808569   x 
            x  Ni         128         0.318941   0.307767   0.809564   x 
            x  Ni         129         0.070576   0.683836   0.939252   x 
            x  Ni         130         0.195576   0.552321   0.930054   x 
            x  Ni         131         0.189999   0.682812   0.810043   x 
            x  Ni         132         0.064117   0.558120   0.810837   x 
            x  Ni         133         0.316795   0.680238   0.936865   x 
            x  Ni         134         0.566885   0.433587   0.934230   x 
            x  Ni         135         0.445702   0.560829   0.934113   x 
            x  Ni         136         0.067701   0.060650   0.812065   x 
            x  Ni         137         0.070185   0.814366   0.815388   x 
            x  Ni         138         0.315356   0.936108   0.939328   x 
            x  Ni         139         0.442912   0.934474   0.812841   x 
            x  Ni         140         0.191674   0.937467   0.811983   x 
            x  Ni         141         0.195637   0.064267   0.940221   x 
            x  Ni         142         0.191259   0.184278   0.809838   x 
            x  Ni         143         0.317844   0.185360   0.938923   x 
            x  Ni         144         0.442656   0.179864   0.811571   x 
            x  Ni         145         0.064596   0.309726   0.064099   x 
            x  Ni         146         0.448767   0.309315   0.187122   x 
            x  Ni         147         0.322368   0.312930   0.063919   x 
            x  Ni         148         0.063874   0.679010   0.186385   x 
            x  Ni         149         0.063099   0.556220   0.061589   x 
            x  Ni         150         0.194378   0.549035   0.189610   x 
            x  Ni         151         0.449293   0.559077   0.187537   x 
            x  Ni         152         0.444182   0.683913   0.062062   x 
            x  Ni         153         0.322238   0.554033   0.061545   x 
            x  Ni         154         0.064857   0.931904   0.184509   x 
            x  Ni         155         0.192738   0.801078   0.182584   x 
            x  Ni         156         0.192069   0.932296   0.064072   x 
            x  Ni         157         0.318086   0.931884   0.186149   x 
            x  Ni         158         0.445010   0.807485   0.185255   x 
            x  Ni         159         0.443401   0.931867   0.063459   x 
            x  Ni         160         0.316105   0.802148   0.064641   x 
            x  Ni         161         0.065453   0.186847   0.186063   x 
            x  Ni         162         0.191468   0.059573   0.189597   x 
            x  Ni         163         0.068871   0.062674   0.064971   x 
            x  Ni         164         0.320634   0.187231   0.189390   x 
            x  Ni         165         0.445885   0.058100   0.185177   x 
            x  Ni         166         0.444568   0.183637   0.063702   x 
            x  Ni         167         0.317944   0.060129   0.066312   x 
            x  Ni         168         0.064756   0.431981   0.433008   x 
            x  Ni         169         0.194456   0.304563   0.432500   x 
            x  Ni         170         0.194524   0.320509   0.188078   x 
            x  Ni         171         0.063913   0.310241   0.307669   x 
            x  Ni         172         0.320102   0.436637   0.436030   x 
            x  Ni         173         0.447031   0.309311   0.437297   x 
            x  Ni         174         0.446175   0.436114   0.313564   x 
            x  Ni         175         0.323309   0.311841   0.311862   x 
            x  Ni         176         0.067414   0.810718   0.556283   x 
            x  Ni         177         0.194832   0.559620   0.438760   x 
            x  Ni         178         0.194559   0.679264   0.307918   x 
            x  Ni         179         0.063967   0.558118   0.312176   x 
            x  Ni         180         0.443383   0.433047   0.563253   x 
            x  Ni         181         0.446400   0.683165   0.311951   x 
            x  Ni         182         0.443648   0.560873   0.436255   x 
            x  Ni         183         0.068250   0.932267   0.428535   x 
            x  Ni         184         0.194713   0.810872   0.431482   x 
            x  Ni         185         0.065288   0.807529   0.305819   x 
            x  Ni         186         0.444745   0.810131   0.435376   x 
            x  Ni         187         0.444382   0.933874   0.309836   x 
            x  Ni         188         0.320423   0.808923   0.308129   x 
            x  Ni         189         0.066656   0.182999   0.428473   x 
            x  Ni         190         0.320303   0.057960   0.309405   x 
            x  Ni         191         0.445569   0.057423   0.436097   x 
            x  Ni         192         0.446398   0.183463   0.310108   x 
            xxxxxxxxxxxxxxxxxxxxxxxxxxxxxxxxxxxxxxxxxxxxxxxxxxxxxxxxxxxx
 
 
                         No user defined ionic velocities
 
                           -------------------------------
                                   Details of Species
                           -------------------------------
 
                               Mass of species in AMU
                                    Al   26.9815400
                                    Ni   58.6934000
 
                          Electric Quadrupole Moment (Barn)
                                    Al    0.1466000 Isotope 27
                                    Ni    0.1620000 Isotope 61
 
                          Files used for pseudopotentials:
                                    Al 3|2.2|2.2|1.4|4|5|5|30:31:32U2U2
                                    Ni 3|2.4|2.4|1.0|8|9|10|40:41:32U2U2(qc=5.5)
 
                           -------------------------------
                              k-Points For BZ Sampling
                           -------------------------------
                       MP grid size for SCF calculation is  1  1  1
                            with an offset of   0.000  0.000  0.000
                       Number of kpoints used =             1
 
                           -------------------------------
                               Symmetry and Constraints
                           -------------------------------
 
                      Maximum deviation from symmetry =  0.00000         ANG
 
                      Number of symmetry operations   =           1
                      Number of ionic constraints     =           3
                      Point group of crystal =     1: C1, 1, 1
                      Space group of crystal =     1: P1, P 1
 
             Set iprint > 1 for details on symmetry rotations/translations
 
                         Centre of mass is constrained
             Set iprint > 1 for details of linear ionic constraints
 
                         Number of cell constraints= 6
                         Cell constraints are:  0 0 0 0 0 0
 
                         External pressure/stress (GPa)
                          0.00000   0.00000   0.00000
                                    0.00000   0.00000
                                              0.00000
  
+---------------- MEMORY AND SCRATCH DISK ESTIMATES PER PROCESS --------------+
|                                                     Memory          Disk    |
| Baseline code, static data and system overhead      622.0 MB         0.0 MB |
| BLAS internal memory storage                          0.0 MB         0.0 MB |
| Model and support data                              741.5 MB         0.0 MB |
| Electronic energy minimisation requirements         236.0 MB         0.0 MB |
| Force calculation requirements                        7.9 MB         0.0 MB |
|                                               ----------------------------- |
| Approx. total storage required per process         1599.5 MB         0.0 MB |
|                                                                             |
| Requirements will fluctuate during execution and may exceed these estimates |
+-----------------------------------------------------------------------------+
Calculating total energy with cut-off of  900.000 eV.
------------------------------------------------------------------------ <-- SCF
SCF loop      Energy           Fermi           Energy gain       Timer   <-- SCF
                               energy          per atom          (sec)   <-- SCF
------------------------------------------------------------------------ <-- SCF
Initial  -2.19134326E+005  0.00000000E+000                        20.56  <-- SCF
      1  -2.63661173E+005  7.13465131E+000   1.74615084E+002     106.85  <-- SCF
      2  -2.70650549E+005  3.65077611E+000   2.74093170E+001     189.55  <-- SCF
      3  -2.71370732E+005  3.52432567E+000   2.82424788E+000     272.53  <-- SCF
      4  -2.71427068E+005  3.64370570E+000   2.20925590E-001     349.78  <-- SCF
      5  -2.71710211E+005  6.62205920E+000   1.11036366E+000     446.37  <-- SCF
      6  -2.71508815E+005  5.53261367E+000  -7.89786365E-001     556.94  <-- SCF
      7  -2.71403263E+005  4.53204850E+000  -4.13928624E-001     658.75  <-- SCF
      8  -2.71387343E+005  4.41038857E+000  -6.24334724E-002     762.39  <-- SCF
      9  -2.71400126E+005  4.48936307E+000   5.01285261E-002     857.43  <-- SCF
     10  -2.71398755E+005  4.45530543E+000  -5.37583974E-003     961.73  <-- SCF
     11  -2.72329129E+005  6.26373951E+000   3.64852688E+000    1071.01  <-- SCF
     12  -2.72344006E+005  6.23014294E+000   5.83412914E-002    1162.15  <-- SCF
     13  -2.71510989E+005  4.81131183E+000  -3.26673359E+000    1290.64  <-- SCF
     14  -2.71590640E+005  4.82802450E+000   3.12355018E-001    1373.56  <-- SCF
     15  -2.71435526E+005  4.31821854E+000  -6.08289162E-001    1486.12  <-- SCF
     16  -2.71398724E+005  4.19707913E+000  -1.44319502E-001    1588.70  <-- SCF
     17  -2.71392780E+005  4.24574872E+000  -2.33112771E-002    1687.04  <-- SCF
     18  -2.71390536E+005  4.31169266E+000  -8.79955925E-003    1782.79  <-- SCF
     19  -2.71388128E+005  4.35438383E+000  -9.44225670E-003    1881.30  <-- SCF
     20  -2.71386876E+005  4.34662594E+000  -4.91174553E-003    1977.87  <-- SCF
     21  -2.71386442E+005  4.34024207E+000  -1.70237912E-003    2079.70  <-- SCF
     22  -2.71386233E+005  4.33621141E+000  -8.17450976E-004    2179.29  <-- SCF
     23  -2.71386021E+005  4.34402744E+000  -8.34241414E-004    2277.21  <-- SCF
     24  -2.71385889E+005  4.35614063E+000  -5.14399905E-004    2376.97  <-- SCF
     25  -2.71385819E+005  4.36089646E+000  -2.76400355E-004    2476.14  <-- SCF
     26  -2.71385681E+005  4.36655973E+000  -5.42419923E-004    2575.79  <-- SCF
     27  -2.71385627E+005  4.36767569E+000  -2.08782463E-004    2674.44  <-- SCF
     28  -2.71385621E+005  4.36888425E+000  -2.58814410E-005    2774.08  <-- SCF
     29  -2.71385600E+005  4.37289637E+000  -8.29485901E-005    2872.97  <-- SCF
     30  -2.71385597E+005  4.37363755E+000  -1.03688036E-005    2964.03  <-- SCF
     31  -2.71385598E+005  4.37412141E+000   5.45592514E-006    3052.74  <-- SCF
     32  -2.71385596E+005  4.37497577E+000  -8.50850680E-006    3137.80  <-- SCF
     33  -2.71385596E+005  4.37506265E+000  -7.47652445E-007    3208.31  <-- SCF
     34  -2.71385596E+005  4.37504800E+000   4.10432136E-007    3277.06  <-- SCF
------------------------------------------------------------------------ <-- SCF
 
Integrated Spin Density     =    0.143656     hbar/2                        
Integrated |Spin Density|   =    0.225580     hbar/2                        
 
Final energy, E             =  -271381.0047691     eV
Final free energy (E-TS)    =  -271385.5961266     eV
(energies not corrected for finite basis set)
 
NB est. 0K energy (E-0.5TS)      =  -271383.3004478     eV
 

Writing analysis data to castep.castep_bin

Writing model to castep.check
 
+---------------- MEMORY AND SCRATCH DISK ESTIMATES PER PROCESS --------------+
|                                                     Memory          Disk    |
| Model and support data                              750.6 MB         0.0 MB |
| Electronic energy minimisation requirements         236.0 MB         0.0 MB |
| Geometry minimisation requirements                  309.4 MB         0.0 MB |
|                                               ----------------------------- |
| Approx. total storage required per process         1296.0 MB         0.0 MB |
|                                                                             |
| Requirements will fluctuate during execution and may exceed these estimates |
+-----------------------------------------------------------------------------+
 
 
 ************************************** Forces **************************************
 *                                                                                  *
 *                           Cartesian components (eV/A)                            *
 * -------------------------------------------------------------------------------- *
 *                         x                    y                    z              *
 *                                                                                  *
 * Al              1     -0.08060             -0.02188             -0.01712         *
 * Al              2      0.03593             -0.03652             -0.01324         *
 * Al              3     -0.12555             -0.03084             -0.09865         *
 * Al              4      0.05762             -0.00279              0.01509         *
 * Al              5     -0.00572              0.04519             -0.10899         *
 * Al              6      0.09455              0.02794              0.00634         *
 * Al              7     -0.15282              0.04098             -0.02967         *
 * Al              8      0.07648              0.00505             -0.02897         *
 * Al              9     -0.04733              0.00801              0.00421         *
 * Al             10      0.03648              0.01695             -0.01970         *
 * Al             11     -0.04982             -0.03642              0.00455         *
 * Al             12      0.09083              0.00154             -0.01287         *
 * Al             13      0.20036             -0.01522             -0.01580         *
 * Al             14      0.04761             -0.03706             -0.03563         *
 * Al             15      0.00291              0.02416             -0.12971         *
 * Al             16      0.07672              0.01111             -0.02852         *
 * Al             17     -0.16846             -0.01826              0.01149         *
 * Al             18      0.03812              0.02119              0.00555         *
 * Al             19     -0.15979             -0.03123              0.09025         *
 * Al             20      0.07415              0.01459             -0.00210         *
 * Al             21     -0.01472              0.00254              0.10293         *
 * Al             22      0.09776             -0.01759             -0.00372         *
 * Al             23      0.03307              0.02164              0.12945         *
 * Al             24      0.02078             -0.00515             -0.01409         *
 * Al             25     -0.20705              0.03085             -0.00197         *
 * Al             26     -0.01555             -0.02322              0.00976         *
 * Al             27     -0.23016              0.00953             -0.04023         *
 * Al             28      0.08441              0.02997             -0.01607         *
 * Al             29     -0.23778             -0.02461              0.01632         *
 * Al             30      0.04322             -0.00426              0.01601         *
 * Al             31     -0.17713              0.02118              0.02113         *
 * Al             32      0.08603             -0.01997              0.03831         *
 * Al             33      0.15068              0.09931              0.13310         *
 * Al             34      0.33042              0.20910              0.29810         *
 * Al             35     -0.06034             -0.03332             -0.08553         *
 * Al             36      0.15871              0.06606              0.23803         *
 * Al             37     -0.05564             -0.26841             -0.03847         *
 * Al             38      0.08922              0.02994             -0.22460         *
 * Al             39     -0.50082             -0.29300              0.54565         *
 * Al             40      0.12768             -0.18316             -0.03221         *
 * Al             41     -0.71712             -0.00393              0.57195         *
 * Al             42      0.13260              0.11794              0.04036         *
 * Al             43      0.01805             -0.14863             -0.07937         *
 * Al             44      0.12018             -0.11899             -0.12065         *
 * Al             45      0.07760             -0.07708              0.04894         *
 * Al             46     -0.13299              0.08374             -0.08350         *
 * Al             47     -0.54442             -0.08524              0.00782         *
 * Al             48     -0.23234             -0.07110             -0.02501         *
 * Al             49      0.02331              0.18055              0.14902         *
 * Al             50     -0.32455              0.04058             -0.06627         *
 * Al             51     -0.51180             -0.08540             -0.68631         *
 * Al             52     -0.06695             -0.08448              0.03188         *
 * Al             53     -0.59511             -0.00676             -0.67393         *
 * Al             54      0.11011             -0.07238             -0.19436         *
 * Al             55      0.05525              0.36726              0.08023         *
 * Al             56      0.29828             -0.10092             -0.01558         *
 * Al             57     -0.26805             -0.18189             -0.09198         *
 * Al             58     -0.11103              0.02772              0.14910         *
 * Al             59      0.05449             -0.07934             -0.17433         *
 * Al             60     -0.19272             -0.02063             -0.12380         *
 * Al             61     -0.10013             -0.11193             -0.01445         *
 * Al             62     -0.06437              0.15726              0.20794         *
 * Al             63     -0.37063              0.20186              0.04142         *
 * Ni              1     -0.01312             -0.00826             -0.07150         *
 * Ni              2      0.01596             -0.01406              0.00737         *
 * Ni              3      0.04620              0.00409             -0.01878         *
 * Ni              4      0.09468             -0.02081             -0.02009         *
 * Ni              5      0.10933             -0.11960             -0.06463         *
 * Ni              6      0.05225              0.02586             -0.11061         *
 * Ni              7      0.08597              0.04614              0.09854         *
 * Ni              8      0.10058             -0.02863              0.00526         *
 * Ni              9     -0.02049              0.02466              0.01142         *
 * Ni             10      0.01974              0.00569              0.03259         *
 * Ni             11      0.27622             -0.05205             -0.08286         *
 * Ni             12      0.08855              0.15394             -0.07986         *
 * Ni             13      0.12412             -0.07876              0.15605         *
 * Ni             14     -0.01877             -0.00382              0.00240         *
 * Ni             15     -0.06950             -0.01903              0.01890         *
 * Ni             16     -0.02638              0.02485             -0.01495         *
 * Ni             17      0.11376              0.18507              0.00781         *
 * Ni             18      0.16375             -0.02141             -0.15708         *
 * Ni             19      0.00424             -0.02190              0.10000         *
 * Ni             20      0.07049              0.01778             -0.00363         *
 * Ni             21      0.00031             -0.00571             -0.01767         *
 * Ni             22      0.03414              0.00092             -0.01687         *
 * Ni             23      0.22460             -0.03860             -0.05025         *
 * Ni             24      0.02698             -0.20262             -0.15331         *
 * Ni             25      0.14154              0.01646              0.01315         *
 * Ni             26      0.10730              0.05193             -0.00220         *
 * Ni             27      0.01991             -0.00102              0.00983         *
 * Ni             28      0.02978              0.01675             -0.03942         *
 * Ni             29      0.09145              0.02854              0.04359         *
 * Ni             30      0.16836             -0.11638             -0.08822         *
 * Ni             31      0.18058              0.15313             -0.08408         *
 * Ni             32      0.06877             -0.04373              0.02099         *
 * Ni             33     -0.04007              0.04623              0.00839         *
 * Ni             34     -0.02391             -0.06363             -0.02373         *
 * Ni             35      0.12719             -0.01133              0.03189         *
 * Ni             36      0.24704              0.14165              0.07847         *
 * Ni             37      0.22669              0.02604             -0.05037         *
 * Ni             38      0.06103             -0.01515             -0.00038         *
 * Ni             39     -0.08800             -0.02468              0.01628         *
 * Ni             40     -0.00602             -0.02770             -0.02297         *
 * Ni             41      0.38731              0.03928             -0.03949         *
 * Ni             42      0.27216              0.07164             -0.05951         *
 * Ni             43      0.09877             -0.14702              0.00175         *
 * Ni             44      0.11010              0.01016              0.00006         *
 * Ni             45     -0.02661             -0.01178              0.02181         *
 * Ni             46      0.02590              0.06802             -0.00666         *
 * Ni             47     -0.05700              0.12400              0.10232         *
 * Ni             48     -0.03743             -0.20016             -0.09512         *
 * Ni             49      0.12073             -0.03111              0.08694         *
 * Ni             50      0.02670             -0.02141             -0.00326         *
 * Ni             51      0.03465              0.00532              0.01375         *
 * Ni             52      0.06131             -0.00784             -0.00256         *
 * Ni             53     -0.11688             -0.23654             -0.03755         *
 * Ni             54     -0.18454             -0.06987             -0.18619         *
 * Ni             55      0.07890              0.04083             -0.11251         *
 * Ni             56      0.03639              0.02509             -0.00792         *
 * Ni             57     -0.06268              0.00870             -0.00730         *
 * Ni             58     -0.03284              0.02321             -0.03193         *
 * Ni             59     -0.18815              0.15415             -0.00357         *
 * Ni             60      0.01328             -0.14262             -0.07279         *
 * Ni             61      0.08217              0.03812             -0.16148         *
 * Ni             62     -0.00565             -0.00746              0.00584         *
 * Ni             63     -0.09657              0.00360             -0.02690         *
 * Ni             64     -0.03295              0.00938              0.01620         *
 * Ni             65     -0.08527             -0.07446              0.07616         *
 * Ni             66      0.12728              0.04113             -0.03563         *
 * Ni             67      0.09564             -0.04945             -0.11224         *
 * Ni             68      0.00150             -0.00040             -0.00786         *
 * Ni             69     -0.03358             -0.02772             -0.01404         *
 * Ni             70     -0.00374             -0.03296             -0.00148         *
 * Ni             71     -0.22991              0.04230             -0.48924         *
 * Ni             72     -0.06626             -0.04606              0.15363         *
 * Ni             73      0.08714              0.00720              0.04813         *
 * Ni             74      0.03860             -0.00221              0.00039         *
 * Ni             75      0.03311              0.00339             -0.00554         *
 * Ni             76      0.00010             -0.03421              0.04442         *
 * Ni             77      0.02811             -0.09303             -0.16738         *
 * Ni             78     -0.26324             -0.00029              0.20468         *
 * Ni             79      0.05587             -0.07936              0.13771         *
 * Ni             80      0.02075              0.01805             -0.00938         *
 * Ni             81     -0.00883              0.01962             -0.00347         *
 * Ni             82      0.00174             -0.00714             -0.00864         *
 * Ni             83     -0.09610             -0.04262             -0.17428         *
 * Ni             84     -0.11860             -0.02735             -0.12576         *
 * Ni             85      0.13320             -0.01888              0.05618         *
 * Ni             86      0.00172              0.01209             -0.00010         *
 * Ni             87     -0.01336             -0.01328             -0.00632         *
 * Ni             88     -0.05646              0.02193              0.01913         *
 * Ni             89      0.08711              0.13734             -0.14573         *
 * Ni             90     -0.28395             -0.38098             -0.14167         *
 * Ni             91      0.14836              0.05761              0.01215         *
 * Ni             92      0.01514             -0.03834              0.01360         *
 * Ni             93     -0.00161             -0.00428             -0.02671         *
 * Ni             94      0.01811              0.01598              0.01760         *
 * Ni             95     -0.09195             -0.08610              0.09992         *
 * Ni             96     -0.34114              0.27222             -0.12591         *
 * Ni             97     -0.08198              0.38772              0.11636         *
 * Ni             98      0.07273             -0.09317              0.18193         *
 * Ni             99      0.09420              0.29665              0.19609         *
 * Ni            100     -0.01248              0.13783              0.07626         *
 * Ni            101     -0.21522              0.05077             -0.04584         *
 * Ni            102      0.17662             -0.18944              0.13473         *
 * Ni            103      0.05675             -0.08657             -0.01442         *
 * Ni            104      0.25287             -0.28586              0.49395         *
 * Ni            105      0.11998             -0.19014              0.04568         *
 * Ni            106     -0.22936              0.02647              0.07115         *
 * Ni            107     -0.02098             -0.05345             -0.04685         *
 * Ni            108     -0.09510              0.03758             -0.00042         *
 * Ni            109      0.12668              0.01678              0.12669         *
 * Ni            110     -0.19602             -0.12491              0.14945         *
 * Ni            111     -0.24834              0.07043             -0.09229         *
 * Ni            112      0.01935             -0.12446             -0.04486         *
 * Ni            113      0.25095              0.14125              0.01681         *
 * Ni            114     -0.00235              0.11212             -0.06866         *
 * Ni            115     -0.05985              0.01712              0.15631         *
 * Ni            116      0.10738              0.25902              0.18614         *
 * Ni            117      0.07254              0.03647              0.12550         *
 * Ni            118      0.10954              0.00561              0.14359         *
 * Ni            119      0.16698              0.11636              0.00819         *
 * Ni            120     -0.02774              0.03977             -0.27287         *
 * Ni            121     -0.10270             -0.10332              0.24794         *
 * Ni            122     -0.17139             -0.03835              0.14939         *
 * Ni            123      0.01086              0.18570             -0.17457         *
 * Ni            124      0.08390              0.05235             -0.05206         *
 * Ni            125      0.23177              0.31389             -0.10845         *
 * Ni            126     -0.22886             -0.11774              0.06522         *
 * Ni            127     -0.09546             -0.04764             -0.13662         *
 * Ni            128     -0.20650             -0.13323              0.02050         *
 * Ni            129      0.05108              0.15347             -0.19143         *
 * Ni            130     -0.03026             -0.26784             -0.13187         *
 * Ni            131     -0.00648             -0.04762              0.00082         *
 * Ni            132      0.21512             -0.05779              0.02814         *
 * Ni            133      0.13851             -0.00746              0.00686         *
 * Ni            134      0.11987              0.02114             -0.05112         *
 * Ni            135     -0.19740              0.04904              0.25734         *
 * Ni            136     -0.19336              0.05706             -0.15013         *
 * Ni            137     -0.36970             -0.35139             -0.02856         *
 * Ni            138      0.15231              0.13540              0.02658         *
 * Ni            139     -0.15811             -0.00053             -0.07163         *
 * Ni            140      0.16771             -0.07048             -0.02418         *
 * Ni            141     -0.13175              0.06453              0.19642         *
 * Ni            142      0.16045              0.00577             -0.11709         *
 * Ni            143      0.32195              0.13324             -0.21962         *
 * Ni            144     -0.09268             -0.03257              0.03598         *
 * Ni            145      0.19949              0.02836             -0.17054         *
 * Ni            146     -0.34086             -0.11297              0.07745         *
 * Ni            147      0.01005             -0.05641              0.06648         *
 * Ni            148      0.39682              0.07573             -0.01187         *
 * Ni            149      0.20125             -0.03481             -0.23371         *
 * Ni            150     -0.16284             -0.06604              0.09787         *
 * Ni            151     -0.06494             -0.03344             -0.11075         *
 * Ni            152     -0.01446             -0.01890             -0.12763         *
 * Ni            153      0.02930              0.16255              0.04255         *
 * Ni            154      0.20741              0.25405              0.03371         *
 * Ni            155     -0.00779             -0.09468              0.10001         *
 * Ni            156     -0.07348             -0.14233             -0.28624         *
 * Ni            157      0.26968              0.05889             -0.25299         *
 * Ni            158     -0.20912              0.11123              0.23418         *
 * Ni            159     -0.12922             -0.02121              0.08330         *
 * Ni            160     -0.17997              0.26183              0.22499         *
 * Ni            161     -0.03278              0.05600              0.07672         *
 * Ni            162     -0.01180             -0.12587              0.09305         *
 * Ni            163      0.00044              0.07172              0.21893         *
 * Ni            164      0.31473             -0.10967             -0.07893         *
 * Ni            165     -0.31881              0.04545              0.16571         *
 * Ni            166     -0.09243             -0.02018             -0.03033         *
 * Ni            167     -0.08469             -0.12879              0.12269         *
 * Ni            168     -0.09196              0.18598              0.25838         *
 * Ni            169     -0.01444             -0.10564             -0.05117         *
 * Ni            170      0.04750              0.27252             -0.03009         *
 * Ni            171      0.26563              0.05340              0.33633         *
 * Ni            172      0.31723             -0.30790              0.22075         *
 * Ni            173     -0.28148              0.27717             -0.09691         *
 * Ni            174      0.12339             -0.09034              0.20115         *
 * Ni            175      0.08547              0.06803             -0.00676         *
 * Ni            176     -0.04150              0.04339              0.24348         *
 * Ni            177     -0.01199             -0.04546             -0.04392         *
 * Ni            178     -0.17832              0.10795             -0.16265         *
 * Ni            179      0.45872             -0.07339             -0.04776         *
 * Ni            180      0.05034             -0.08578             -0.00820         *
 * Ni            181      0.19815              0.06244              0.04762         *
 * Ni            182     -0.08460             -0.15151             -0.12750         *
 * Ni            183      0.05557              0.12733              0.37706         *
 * Ni            184     -0.11673              0.12289              0.03650         *
 * Ni            185      0.22645             -0.02623              0.02979         *
 * Ni            186     -0.03351             -0.14657             -0.13504         *
 * Ni            187     -0.07813             -0.07767             -0.17089         *
 * Ni            188      0.08591              0.05221             -0.07773         *
 * Ni            189     -0.07282              0.10619              0.30136         *
 * Ni            190      0.12096             -0.01246             -0.18927         *
 * Ni            191     -0.05230              0.02282             -0.11317         *
 * Ni            192      0.06650              0.03210             -0.17983         *
 *                                                                                  *
 ************************************************************************************
 LBFGS: finished iteration     0 with enthalpy= -2.71385596E+005 eV
  
 +-----------+-----------------+-----------------+------------+-----+ <-- LBFGS
 | Parameter |      value      |    tolerance    |    units   | OK? | <-- LBFGS
 +-----------+-----------------+-----------------+------------+-----+ <-- LBFGS
 |  dE/ion   |   0.000000E+000 |   2.000000E-005 |         eV | No  | <-- LBFGS
 |  |F|max   |   9.172780E-001 |   5.000000E-002 |       eV/A | No  | <-- LBFGS
 |  |dR|max  |   0.000000E+000 |   1.000000E-003 |          A | No  | <-- LBFGS
 +-----------+-----------------+-----------------+------------+-----+ <-- LBFGS
  

================================================================================
 Starting LBFGS iteration          1 ...
================================================================================
  
 +------------+-------------+-------------+-----------------+ <-- min LBFGS
 |    Step    |   lambda    |   F.delta'  |    enthalpy     | <-- min LBFGS
 +------------+-------------+-------------+-----------------+ <-- min LBFGS
 |  previous  |    0.000000 |    2.070817 |  -271385.596127 | <-- min LBFGS
 +------------+-------------+-------------+-----------------+ <-- min LBFGS
  

--------------------------------------------------------------------------------
 LBFGS: starting iteration         1 with trial guess (lambda=  1.000000)
--------------------------------------------------------------------------------
 
                           -------------------------------
                                     Cell Contents
                           -------------------------------
 
            xxxxxxxxxxxxxxxxxxxxxxxxxxxxxxxxxxxxxxxxxxxxxxxxxxxxxxxxxxxxxxxxx
            x  Element         Atom        Fractional coordinates of atoms  x
            x                 Number           u          v          w      x
            x---------------------------------------------------------------x
            x  Al                1         0.569657   0.308782   0.562626   x
            x  Al                2         0.817689   0.309209   0.561960   x
            x  Al                3         0.569090   0.560192   0.562048   x
            x  Al                4         0.817929   0.558883   0.562126   x
            x  Al                5         0.574071   0.809863   0.556821   x
            x  Al                6         0.819123   0.809040   0.560841   x
            x  Al                7         0.570297   0.057905   0.561936   x
            x  Al                8         0.818912   0.059417   0.561028   x
            x  Al                9         0.568720   0.306848   0.810239   x
            x  Al               10         0.817154   0.308952   0.811384   x
            x  Al               11         0.568998   0.561233   0.810106   x
            x  Al               12         0.817051   0.559176   0.811274   x
            x  Al               13         0.576136   0.811255   0.812005   x
            x  Al               14         0.818726   0.809153   0.811506   x
            x  Al               15         0.572148   0.056853   0.807742   x
            x  Al               16         0.818701   0.059062   0.811316   x
            x  Al               17         0.571732   0.307511   0.060833   x
            x  Al               18         0.817209   0.309515   0.060837   x
            x  Al               19         0.571114   0.560044   0.059847   x
            x  Al               20         0.817101   0.558516   0.060903   x
            x  Al               21         0.574499   0.809356   0.065391   x
            x  Al               22         0.819266   0.808779   0.062013   x
            x  Al               23         0.575912   0.057998   0.067295   x
            x  Al               24         0.819032   0.059367   0.061829   x
            x  Al               25         0.571615   0.309324   0.312723   x
            x  Al               26         0.817894   0.309541   0.312072   x
            x  Al               27         0.572501   0.558935   0.313154   x
            x  Al               28         0.817845   0.558376   0.311674   x
            x  Al               29         0.571779   0.809146   0.311349   x
            x  Al               30         0.819718   0.808649   0.311728   x
            x  Al               31         0.571520   0.058761   0.310817   x
            x  Al               32         0.819567   0.059835   0.312239   x
            x  Al               33         0.328512   0.183309   0.432727   x
            x  Al               34         0.056435   0.057623   0.306249   x
            x  Al               35         0.192851   0.190595   0.303700   x
            x  Al               36         0.321583   0.934110   0.436693   x
            x  Al               37         0.192410   0.929063   0.302290   x
            x  Al               38         0.326036   0.558949   0.562258   x
            x  Al               39         0.072770   0.688401   0.428562   x
            x  Al               40         0.198454   0.189811   0.072208   x
            x  Al               41         0.066265   0.805758   0.064326   x
            x  Al               42         0.323706   0.674107   0.195492   x
            x  Al               43         0.193398   0.667591   0.062623   x
            x  Al               44         0.330090   0.437561   0.189485   x
            x  Al               45         0.318134   0.686707   0.427315   x
            x  Al               46         0.189992   0.433905   0.055961   x
            x  Al               47         0.062011   0.435825   0.188074   x
            x  Al               48         0.317597   0.060191   0.810835   x
            x  Al               49         0.439268   0.057377   0.944048   x
            x  Al               50         0.186913   0.054384   0.683206   x
            x  Al               51         0.068446   0.184842   0.940481   x
            x  Al               52         0.432896   0.810236   0.937425   x
            x  Al               53         0.071267   0.945620   0.940904   x
            x  Al               54         0.201113   0.808092   0.931662   x
            x  Al               55         0.325170   0.564770   0.807372   x
            x  Al               56         0.329432   0.428226   0.936900   x
            x  Al               57         0.184077   0.423668   0.810975   x
            x  Al               58         0.187439   0.187015   0.555247   x
            x  Al               59         0.433611   0.811576   0.685806   x
            x  Al               60         0.191968   0.810675   0.685225   x
            x  Al               61         0.187509   0.424582   0.553997   x
            x  Al               62         0.194846   0.434607   0.321547   x
            x  Al               63         0.179988   0.565946   0.682553   x
            x  Ni                1         0.567804   0.433349   0.686793   x
            x  Ni                2         0.693199   0.308432   0.686683   x
            x  Ni                3         0.693024   0.434325   0.562442   x
            x  Ni                4         0.817115   0.434401   0.686869   x
            x  Ni                5         0.941868   0.309452   0.686668   x
            x  Ni                6         0.942187   0.434267   0.561836   x
            x  Ni                7         0.567439   0.689695   0.684814   x
            x  Ni                8         0.691762   0.560251   0.686444   x
            x  Ni                9         0.694559   0.684068   0.561112   x
            x  Ni               10         0.818294   0.683919   0.686437   x
            x  Ni               11         0.942191   0.559038   0.686678   x
            x  Ni               12         0.942589   0.683725   0.561438   x
            x  Ni               13         0.567241   0.930705   0.684769   x
            x  Ni               14         0.695581   0.809789   0.685258   x
            x  Ni               15         0.695086   0.934539   0.560343   x
            x  Ni               16         0.819358   0.934286   0.685890   x
            x  Ni               17         0.942584   0.808798   0.686294   x
            x  Ni               18         0.943159   0.934004   0.561105   x
            x  Ni               19         0.567475   0.182999   0.685757   x
            x  Ni               20         0.694206   0.058048   0.685341   x
            x  Ni               21         0.693347   0.183655   0.561487   x
            x  Ni               22         0.818062   0.183886   0.686316   x
            x  Ni               23         0.942857   0.059254   0.686280   x
            x  Ni               24         0.942672   0.184583   0.561536   x
            x  Ni               25         0.448969   0.433329   0.060797   x
            x  Ni               26         0.691824   0.307936   0.935211   x
            x  Ni               27         0.692031   0.434102   0.811069   x
            x  Ni               28         0.816700   0.434083   0.935829   x
            x  Ni               29         0.941795   0.309493   0.936360   x
            x  Ni               30         0.941674   0.434285   0.811520   x
            x  Ni               31         0.566906   0.688442   0.937353   x
            x  Ni               32         0.691816   0.559875   0.935329   x
            x  Ni               33         0.693718   0.684666   0.811311   x
            x  Ni               34         0.818118   0.683891   0.936343   x
            x  Ni               35         0.941808   0.558943   0.936413   x
            x  Ni               36         0.942308   0.683910   0.811545   x
            x  Ni               37         0.566576   0.933702   0.938628   x
            x  Ni               38         0.694967   0.810117   0.937560   x
            x  Ni               39         0.695520   0.934591   0.811375   x
            x  Ni               40         0.819471   0.934332   0.936810   x
            x  Ni               41         0.942700   0.808763   0.936712   x
            x  Ni               42         0.942861   0.933966   0.811438   x
            x  Ni               43         0.567588   0.179330   0.936824   x
            x  Ni               44         0.693622   0.057851   0.936759   x
            x  Ni               45         0.693401   0.182825   0.811069   x
            x  Ni               46         0.817984   0.183898   0.936122   x
            x  Ni               47         0.942984   0.059320   0.936655   x
            x  Ni               48         0.942238   0.184333   0.811409   x
            x  Ni               49         0.569372   0.434045   0.186706   x
            x  Ni               50         0.693907   0.309346   0.186687   x
            x  Ni               51         0.692233   0.433909   0.060235   x
            x  Ni               52         0.817518   0.434050   0.186130   x
            x  Ni               53         0.942311   0.309799   0.186388   x
            x  Ni               54         0.941790   0.434280   0.061195   x
            x  Ni               55         0.569689   0.683973   0.187192   x
            x  Ni               56         0.693361   0.558625   0.186289   x
            x  Ni               57         0.694760   0.683894   0.061554   x
            x  Ni               58         0.818715   0.683119   0.186647   x
            x  Ni               59         0.942121   0.558680   0.186369   x
            x  Ni               60         0.942281   0.683450   0.061577   x
            x  Ni               61         0.569910   0.932983   0.188394   x
            x  Ni               62         0.696264   0.808716   0.187969   x
            x  Ni               63         0.696290   0.933877   0.062768   x
            x  Ni               64         0.820019   0.934143   0.187312   x
            x  Ni               65         0.943041   0.808504   0.186737   x
            x  Ni               66         0.943184   0.934067   0.061880   x
            x  Ni               67         0.570094   0.184256   0.187572   x
            x  Ni               68         0.696548   0.059241   0.188397   x
            x  Ni               69         0.695076   0.184010   0.061602   x
            x  Ni               70         0.818870   0.184958   0.187012   x
            x  Ni               71         0.943180   0.059567   0.186666   x
            x  Ni               72         0.942281   0.184697   0.061509   x
            x  Ni               73         0.568479   0.434605   0.438217   x
            x  Ni               74         0.693094   0.308956   0.437761   x
            x  Ni               75         0.693764   0.433909   0.312263   x
            x  Ni               76         0.817862   0.433919   0.437267   x
            x  Ni               77         0.942592   0.309640   0.436711   x
            x  Ni               78         0.942107   0.434228   0.311574   x
            x  Ni               79         0.569354   0.684666   0.435872   x
            x  Ni               80         0.694065   0.558929   0.437637   x
            x  Ni               81         0.694936   0.683495   0.311733   x
            x  Ni               82         0.818880   0.683435   0.436530   x
            x  Ni               83         0.942349   0.558741   0.436637   x
            x  Ni               84         0.942734   0.683273   0.311516   x
            x  Ni               85         0.568641   0.934520   0.434889   x
            x  Ni               86         0.695876   0.809252   0.435219   x
            x  Ni               87         0.695732   0.934282   0.311955   x
            x  Ni               88         0.819585   0.934562   0.436260   x
            x  Ni               89         0.943047   0.808699   0.436344   x
            x  Ni               90         0.943571   0.934074   0.311635   x
            x  Ni               91         0.567560   0.182966   0.437013   x
[...]
            Ni 13  -- Ni 139                 0.01         0.00          2.58709
             Al 3  -- Ni 108                 0.18        -0.00          2.58733
            Ni 126 -- Ni 147                 0.09         0.00          2.58756
             Al 14 -- Ni 16                  0.19         0.00          2.58760
             Al 21 -- Ni 37                  0.20        -0.00          2.58769
             Al 40 -- Ni 124                 0.20         0.00          2.58775
             Al 51 -- Ni 142                 0.18        -0.00          2.58798
            Ni 36  -- Ni 129                 0.12         0.00          2.58801
            Ni 102 -- Ni 131                -0.04        -0.00          2.58812
             Al 42 -- Ni 158                 0.15         0.00          2.58841
            Ni 129 -- Ni 132                 0.13         0.00          2.58860
             Al 7  -- Ni 13                  0.20        -0.00          2.58893
             Al 27 -- Ni 55                  0.18         0.00          2.58896
            Ni 184 -- Ni 188                -0.03         0.00          2.58918
            Ni 29  -- Ni 48                  0.02        -0.00          2.58936
            Ni 138 -- Ni 139                -0.01         0.00          2.58941
            Ni 13  -- Ni 39                  0.02        -0.00          2.58941
             Al 9  -- Ni 127                 0.19        -0.00          2.58969
            Ni 102 -- Ni 111                 0.08         0.00          2.58970
            Ni 37  -- Ni 38                  0.08         0.00          2.59047
             Al 60 -- Ni 140                 0.17        -0.00          2.59068
            Ni 116 -- Ni 118                 0.02        -0.00          2.59082
             Al 36 -- Ni 190                 0.18         0.00          2.59083
             Al 60 -- Ni 131                 0.17        -0.00          2.59103
            Ni 131 -- Ni 133                 0.03         0.00          2.59107
             Al 1  -- Ni 101                 0.17        -0.00          2.59125
             Al 15 -- Ni 139                 0.18        -0.00          2.59132
            Ni 105 -- Ni 131                 0.02        -0.00          2.59133
             Al 34 -- Ni 162                 0.16        -0.00          2.59152
            Ni 34  -- Ni 41                  0.07        -0.00          2.59157
             Al 19 -- Ni 134                 0.19         0.00          2.59169
            Ni 13  -- Ni 120                 0.04         0.00          2.59184
            Ni 68  -- Ni 69                  0.02         0.00          2.59187
            Ni 108 -- Ni 182                 0.03         0.00          2.59188
            Ni 71  -- Ni 96                  0.01        -0.00          2.59190
            Ni 150 -- Ni 178                 0.18        -0.00          2.59209
             Al 17 -- Ni 43                  0.19         0.00          2.59223
             Al 21 -- Ni 159                 0.16         0.00          2.59243
            Ni 1   -- Ni 101                 0.03         0.00          2.59255
             Al 15 -- Ni 37                  0.20        -0.00          2.59282
            Ni 67  -- Ni 165                 0.02         0.00          2.59349
             Al 49 -- Ni 144                 0.17         0.00          2.59360
             Al 60 -- Ni 102                 0.20        -0.00          2.59371
            Ni 143 -- Ni 147                 0.09         0.00          2.59386
            Ni 111 -- Ni 115                 0.04         0.00          2.59393
            Ni 159 -- Ni 167                 0.10         0.00          2.59415
             Al 51 -- Ni 124                 0.20        -0.00          2.59425
            Ni 41  -- Ni 66                 -0.03        -0.00          2.59435
             Al 5  -- Ni 115                 0.16        -0.00          2.59445
             Al 3  -- Ni 7                   0.20        -0.00          2.59447
             Al 11 -- Ni 127                 0.18        -0.00          2.59538
            Ni 155 -- Ni 188                 0.03         0.00          2.59543
             Al 19 -- Ni 31                  0.20         0.00          2.59547
            Ni 41  -- Ni 42                  0.03        -0.00          2.59564
             Al 17 -- Ni 49                  0.19         0.00          2.59565
            Ni 103 -- Ni 169                -0.03        -0.00          2.59570
             Al 15 -- Ni 44                  0.20        -0.00          2.59577
            Ni 155 -- Ni 156                 0.07         0.00          2.59641
            Ni 121 -- Ni 191                -0.00         0.00          2.59660
            Ni 25  -- Ni 135                -0.01         0.00          2.59698
             Al 33 -- Ni 169                 0.19         0.00          2.59712
            Ni 124 -- Ni 147                 0.01         0.00          2.59729
            Ni 101 -- Ni 144                 0.10         0.00          2.59731
             Al 17 -- Ni 134                 0.19         0.00          2.59742
            Ni 170 -- Ni 175                -0.03         0.00          2.59745
            Ni 126 -- Ni 128                 0.09         0.00          2.59772
            Ni 113 -- Ni 139                 0.01         0.00          2.59862
             Al 40 -- Ni 141                 0.18         0.00          2.59968
            Ni 112 -- Ni 122                 0.11        -0.00          2.59969
             Al 23 -- Ni 37                  0.19         0.00          2.59973
             Al 19 -- Ni 49                  0.20         0.00          2.60004
            Ni 123 -- Ni 124                 0.01         0.00          2.60008
             Al 40 -- Ni 163                 0.16         0.00          2.60032
             Al 11 -- Ni 7                   0.19         0.00          2.60046
            Ni 117 -- Ni 122                 0.04         0.00          2.60047
             Al 5  -- Ni 108                 0.18        -0.00          2.60102
             Al 62 -- Ni 171                 0.12         0.00          2.60130
            Ni 146 -- Ni 174                 0.01         0.00          2.60146
            Ni 142 -- Ni 143                 0.05         0.00          2.60167
            Ni 178 -- Ni 184                 0.03        -0.00          2.60180
             Al 59 -- Ni 13                  0.17         0.00          2.60185
             Al 56 -- Ni 153                 0.18        -0.00          2.60187
            Ni 31  -- Ni 32                  0.06         0.00          2.60207
             Al 42 -- Ni 153                 0.23         0.00          2.60229
            Ni 37  -- Ni 39                  0.02         0.00          2.60236
            Ni 172 -- Ni 177                 0.07        -0.00          2.60244
            Ni 104 -- Ni 105                 0.05        -0.00          2.60251
             Al 21 -- Ni 152                 0.16         0.00          2.60253
            Ni 60  -- Ni 65                  0.01         0.00          2.60262
             Al 45 -- Ni 111                 0.17         0.00          2.60283
            Ni 117 -- Ni 191                 0.08         0.00          2.60292
             Al 9  -- Ni 144                 0.18         0.00          2.60298
             Al 51 -- Ni 163                 0.17        -0.00          2.60311
            Ni 95  -- Ni 96                  0.01        -0.00          2.60319
             Al 41 -- Ni 129                 0.19         0.00          2.60320
             Al 48 -- Ni 120                 0.20         0.00          2.60337
            Ni 111 -- Ni 113                 0.08         0.00          2.60379
            Ni 7   -- Ni 8                   0.06        -0.00          2.60422
             Al 61 -- Ni 100                 0.20        -0.00          2.60475
            Ni 35  -- Ni 129                 0.10         0.00          2.60487
            Ni 110 -- Ni 112                 0.05        -0.00          2.60508
            Ni 53  -- Ni 54                  0.00        -0.00          2.60561
            Ni 161 -- Ni 162                -0.00         0.00          2.60634
            Ni 54  -- Ni 59                  0.00        -0.00          2.60709
            Ni 59  -- Ni 78                 -0.01        -0.00          2.60717
            Ni 71  -- Ni 90                  0.02        -0.00          2.60761
            Ni 98  -- Ni 99                 -0.00        -0.00          2.60766
            Ni 42  -- Ni 47                 -0.01        -0.00          2.60806
            Ni 13  -- Ni 20                  0.05        -0.00          2.60861
            Ni 53  -- Ni 78                  0.00        -0.00          2.60950
             Al 53 -- Ni 137                 0.18         0.00          2.61004
            Ni 181 -- Ni 188                 0.09         0.00          2.61076
            Ni 145 -- Ni 170                 0.00         0.00          2.61137
            Ni 65  -- Ni 66                  0.02         0.00          2.61168
             Al 40 -- Ni 170                 0.18         0.00          2.61180
             Al 34 -- Ni 122                 0.16        -0.00          2.61222
             Al 50 -- Ni 142                 0.15        -0.00          2.61225
            Ni 121 -- Ni 173                 0.01         0.00          2.61294
            Ni 26  -- Ni 43                  0.07         0.00          2.61303
            Ni 47  -- Ni 163                 0.05        -0.00          2.61317
            Ni 105 -- Ni 109                 0.05        -0.00          2.61334
            Ni 65  -- Ni 148                 0.04         0.00          2.61350
             Al 9  -- Ni 43                  0.19        -0.00          2.61369
            Ni 159 -- Ni 160                 0.10         0.00          2.61375
            Ni 104 -- Ni 109                 0.01        -0.00          2.61379
            Ni 156 -- Ni 157                 0.13         0.00          2.61408
             Al 11 -- Ni 31                  0.19        -0.00          2.61415
             Al 58 -- Ni 122                 0.18        -0.00          2.61421
            Ni 173 -- Ni 192                 0.00         0.00          2.61421
            Ni 143 -- Ni 167                 0.01         0.00          2.61463
            Ni 107 -- Ni 114                 0.06         0.00          2.61493
             Al 40 -- Ni 143                 0.18         0.00          2.61547
            Ni 110 -- Ni 118                 0.05        -0.00          2.61591
             Al 50 -- Ni 117                 0.15        -0.00          2.61629
             Al 58 -- Ni 117                 0.15        -0.00          2.61722
            Ni 169 -- Ni 172                 0.01        -0.00          2.61726
            Ni 148 -- Ni 150                 0.07        -0.00          2.61744
            Ni 180 -- Ni 182                 0.00         0.00          2.61753
             Al 46 -- Ni 153                 0.12        -0.00          2.61818
            Ni 156 -- Ni 167                 0.11         0.00          2.61872
            Ni 25  -- Ni 126                -0.01         0.00          2.61891
             Al 59 -- Ni 7                   0.16         0.00          2.61947
            Ni 105 -- Ni 132                 0.04        -0.00          2.62029
             Al 36 -- Ni 184                 0.18         0.00          2.62046
            Ni 177 -- Ni 179                 0.04        -0.00          2.62058
            Ni 168 -- Ni 177                 0.04        -0.00          2.62167
             Al 35 -- Ni 122                 0.17         0.00          2.62205
            Ni 114 -- Ni 135                 0.06         0.00          2.62224
             Al 58 -- Ni 119                 0.17        -0.00          2.62230
            Ni 155 -- Ni 157                 0.07         0.00          2.62293
             Al 43 -- Ni 155                 0.18        -0.00          2.62341
            Ni 100 -- Ni 107                 0.02         0.00          2.62343
             Al 36 -- Ni 188                 0.18        -0.00          2.62384
            Ni 102 -- Ni 114                -0.01         0.00          2.62464
             Al 45 -- Ni 108                 0.14         0.00          2.62507
             Al 42 -- Ni 152                 0.16        -0.00          2.62574
             Al 63 -- Ni 100                 0.18        -0.00          2.62596
             Al 46 -- Ni 147                 0.13        -0.00          2.62704
            Ni 115 -- Ni 117                 0.09         0.00          2.62773
            Ni 100 -- Ni 180                 0.09         0.00          2.62853
            Ni 106 -- Ni 133                 0.01         0.00          2.62886
             Al 36 -- Ni 122                 0.17         0.00          2.62892
            Ni 140 -- Ni 141                 0.07         0.00          2.62916
             Al 49 -- Ni 139                 0.16         0.00          2.62949
             Al 61 -- Ni 104                 0.16         0.00          2.63092
            Ni 100 -- Ni 128                 0.09        -0.00          2.63122
            Ni 99  -- Ni 169                 0.00        -0.00          2.63217
             Al 56 -- Ni 130                 0.15         0.00          2.63293
            Ni 114 -- Ni 133                 0.02         0.00          2.63384
             Al 45 -- Ni 109                 0.14         0.00          2.63522
            Ni 136 -- Ni 141                 0.01        -0.00          2.63554
             Al 23 -- Ni 166                 0.14         0.00          2.63555
             Al 42 -- Ni 155                 0.15         0.00          2.63672
            Ni 150 -- Ni 153                -0.03         0.00          2.63885
             Al 52 -- Ni 31                  0.16         0.00          2.64008
            Ni 124 -- Ni 125                 0.03        -0.00          2.64042
             Al 48 -- Al 49                  0.27         0.00          2.64096
            Ni 178 -- Ni 188                 0.02         0.00          2.64135
            Ni 106 -- Ni 138                -0.00         0.00          2.64225
             Al 37 -- Ni 190                 0.15        -0.00          2.64344
            Ni 138 -- Ni 160                 0.05         0.00          2.64362
            Ni 127 -- Ni 135                -0.03         0.00          2.64374
             Al 35 -- Ni 189                 0.15         0.00          2.64398
            Ni 162 -- Ni 164                 0.01         0.00          2.64612
            Ni 156 -- Ni 162                 0.12         0.00          2.64713
            Ni 130 -- Ni 153                -0.00         0.00          2.64765
             Al 48 -- Al 50                  0.25        -0.00          2.64992
            Ni 126 -- Ni 127                 0.01         0.00          2.65083
             Al 56 -- Ni 124                 0.15         0.00          2.65188
            Ni 154 -- Ni 155                 0.05         0.00          2.65251
            Ni 149 -- Ni 150                -0.05         0.00          2.65357
             Al 38 -- Ni 109                 0.13         0.00          2.65450
             Al 23 -- Ni 159                 0.13         0.00          2.65456
             Al 50 -- Ni 119                 0.14        -0.00          2.65475
            Ni 100 -- Ni 103                 0.10        -0.00          2.65604
             Al 43 -- Ni 160                 0.16        -0.00          2.65758
             Al 35 -- Ni 190                 0.13        -0.00          2.65839
             Al 33 -- Ni 122                 0.15         0.00          2.66059
             Al 37 -- Ni 122                 0.15         0.00          2.66092
             Al 50 -- Al 58                  0.23        -0.00          2.66104
             Al 13 -- Ni 139                 0.14         0.00          2.66177
             Al 52 -- Ni 37                  0.15         0.00          2.66303
             Al 23 -- Al 49                  0.24         0.00          2.66659
             Al 42 -- Ni 150                 0.24        -0.00          2.66759
             Al 38 -- Al 45                  0.27         0.00          2.67381
             Al 42 -- Ni 160                 0.13        -0.00          2.67554
            Ni 100 -- Ni 101                 0.07         0.00          2.67571
            Ni 129 -- Ni 130                 0.08         0.00          2.67718
            Ni 168 -- Ni 169                 0.02        -0.00          2.67930
             Al 46 -- Al 56                  0.23         0.00          2.68925
            Ni 130 -- Ni 149                 0.01         0.00          2.69508
            Ni 161 -- Ni 170                 0.03         0.00          2.70562
             Al 42 -- Al 43                  0.21         0.00          2.71854
             Al 36 -- Al 37                  0.22         0.00          2.72332
             Al 46 -- Al 47                  0.20         0.00          2.72610
             Al 33 -- Al 35                  0.21         0.00          2.73528
             Al 34 -- Al 35                  0.19        -0.00          2.73685
             Al 33 -- Al 58                  0.21        -0.00          2.73713
            Ni 164 -- Ni 170                 0.03         0.00          2.73931
             Al 34 -- Al 37                  0.19         0.00          2.74564
             Al 5  -- Al 59                  0.20         0.00          2.74729
             Al 55 -- Al 56                  0.19         0.00          2.75874
             Al 21 -- Al 52                  0.20         0.00          2.76383
             Al 57 -- Al 63                  0.17        -0.00          2.76789
             Al 15 -- Al 49                  0.20         0.00          2.77126
             Al 53 -- Al 54                  0.18         0.00          2.77726
             Al 38 -- Al 63                  0.16        -0.00          2.77864
             Al 44 -- Al 62                  0.24         0.00          2.78274
             Al 13 -- Al 52                  0.19         0.00          2.78377
             Al 40 -- Al 51                  0.20         0.00          2.78569
             Al 43 -- Al 54                  0.17         0.00          2.78788
             Al 55 -- Al 63                  0.16        -0.00          2.79079
             Al 13 -- Al 59                  0.18         0.00          2.79214
             Al 38 -- Al 61                  0.16        -0.00          2.79287
             Al 61 -- Al 63                  0.16        -0.00          2.79416
             Al 41 -- Al 43                  0.15         0.00          2.80163
             Al 41 -- Al 53                  0.17         0.00          2.80218
             Al 44 -- Al 46                  0.14         0.00          2.81501
             Al 56 -- Al 57                  0.17         0.00          2.82259
             Al 47 -- Al 62                  0.13        -0.00          2.82765
             Al 41 -- Al 54                  0.13         0.00          2.84927
             Al 55 -- Al 57                  0.09         0.00          2.94495
================================================================================
 

Writing analysis data to castep.castep_bin

Writing model to castep.check
 
 A BibTeX formatted list of references used in this run has been written to 
 castep.bib
 
Initialisation time =     13.82 s
Calculation time    =  17283.39 s
Finalisation time   =     16.49 s
Total time          =  17313.71 s
Peak Memory Use     = 2374148 kB
  
Overall parallel efficiency rating: Good (72%)                                  
  
Data was distributed by:-
G-vector (48-way); efficiency rating: Good (73%)                                
