 +-------------------------------------------------+
 |                                                 |
 |      CCC   AA    SSS  TTTTT  EEEEE  PPPP        |
 |     C     A  A  S       T    E      P   P       |
 |     C     AAAA   SS     T    EEE    PPPP        |
 |     C     A  A     S    T    E      P           |
 |      CCC  A  A  SSS     T    EEEEE  P           |
 |                                                 |
 +-------------------------------------------------+
 |                                                 |
 | Welcome to Academic Release CASTEP version 20.11|          
 | Ab Initio Total Energy Program                  |
 |                                                 |
 | Authors:                                        |
 | M. Segall, M. Probert, C. Pickard, P. Hasnip,   |
 | S. Clark, K. Refson, J. R. Yates, M. Payne      |
 |                                                 |
 | Contributors:                                   |
 | P. Lindan, P. Haynes, J. White, V. Milman,      |
 | N. Govind, M. Gibson, P. Tulip, V. Cocula,      |
 | B. Montanari, D. Quigley, M. Glover,            |
 | L. Bernasconi, A. Perlov, M. Plummer,           |
 | E. McNellis, J. Meyer, J. Gale, D. Jochym       |
 | J. Aarons, B. Walker, R. Gillen, D. Jones       |
 | T. Green, I. J. Bush, C. J. Armstrong,          |
 | E. J. Higgins, E. L. Brown, M. S. McFly,        |
 | J. Wilkins, B-C. Shih, P. J. P. Byrne,          |
 | R. J. Maurer, J. C. Womack, J. Dziedzic,        |
 | J. R. Kermode, A. Bartok-Partay                 |
 |                                                 |
 | Copyright (c) 2000 - 2020                       |
 |                                                 |
 |     Distributed under license from Cambridge    |
 |     Enterprise for academic use only.           |
 |                                                 |
 | Please cite                                     |
 |                                                 |
 |     "First principles methods using CASTEP"     |
 |                                                 |
 |         Zeitschrift fuer Kristallographie       |
 |           220(5-6) pp. 567-570 (2005)           |
 |                                                 |
 | S. J. Clark, M. D. Segall, C. J. Pickard,       |
 | P. J. Hasnip, M. J. Probert, K. Refson,         |
 | M. C. Payne                                     |
 |                                                 |
 |       in all publications arising from          |
 |              your use of CASTEP                 |
 |                                                 |
 +-------------------------------------------------+
 |                                                 |
 |              http://www.castep.org              |
 |                                                 |
 +-------------------------------------------------+
 
 
 
 Compiled for linux_x86_64_ifort on Wed, 25 Aug 2021 18:50:38 +0100
 from code version e772bf432+  HEAD  Sat Apr 3 17:41:32 2021 +0100
 Compiler: Intel Fortran 19.0.5.281; Optimisation: fast
 MATHLIBS: Intel MKL(2019.0.5) (LAPACK version 3.7.0)
 FFT Lib : mkl
 Fundamental constants values: CODATA 2014
 
 Run started: Wed, 08 Mar 2023 18:58:25 +0000
 
 Atomic calculation performed for Al: 1s2 2s2 2p6 3s2 3p1
 
 Converged in 52 iterations to an ae energy of -6606.982 eV
 
   ============================================================                
   | Pseudopotential Report - Date of generation  8-03-2023   |                
   ------------------------------------------------------------                
   | Element: Al Ionic charge:  3.00 Level of theory: RPBE    |                
   | Atomic Solver: Koelling-Harmon                           |                
   |                                                          |                
   |               Reference Electronic Structure             |                
   |         Orbital         Occupation         Energy        |                
   |            3s              2.000           -0.284        |                
   |            3p              1.000           -0.100        |                
   |                                                          |                
   |                 Pseudopotential Definition               |                
   |        Beta     l      e      Rc     scheme   norm       |                
   |          1      0   -0.284   2.192     qc      0         |                
   |          2      0    0.250   2.192     qc      0         |                
   |          3      1   -0.100   2.192     qc      0         |                
   |          4      1    0.250   2.192     qc      0         |                
   |          5      2    0.000   2.000     qc      0         |                
   |          6      2    0.250   2.000     qc      0         |                
   |         loc     3    0.000   2.192     pn      0         |                
   |                                                          |                
   | Augmentation charge Rinner = 1.398                       |                
   | Partial core correction Rc = 1.398                       |                
   ------------------------------------------------------------                
   | "3|2.2|2.2|1.4|4|5|5|30:31:32U2U2"                       |                
   ------------------------------------------------------------                
   |      Author: Chris J. Pickard, Cambridge University      |                
   ============================================================                
 
 Atomic calculation performed for Ni: 1s2 2s2 2p6 3s2 3p6 3d8 4s2
 
 Converged in 109 iterations to an ae energy of -41381.414 eV
 
   ============================================================                
   | Pseudopotential Report - Date of generation  8-03-2023   |                
   ------------------------------------------------------------                
   | Element: Ni Ionic charge: 10.00 Level of theory: RPBE    |                
   | Atomic Solver: Koelling-Harmon                           |                
   |                                                          |                
   |               Reference Electronic Structure             |                
   |         Orbital         Occupation         Energy        |                
   |            3d              8.000           -0.324        |                
   |            4s              2.000           -0.204        |                
   |                                                          |                
   |                 Pseudopotential Definition               |                
   |        Beta     l      e      Rc     scheme   norm       |                
   |          1      0   -0.204   2.401     qc      0         |                
   |          2      0    0.250   2.401     qc      0         |                
   |          3      1    0.000   2.401     qc      0         |                
   |          4      1    0.250   2.401     qc      0         |                
   |          5      2   -0.324   1.999     qc      0         |                
   |          6      2    0.250   1.999     qc      0         |                
   |         loc     3    0.000   2.401     pn      0         |                
   |                                                          |                
   | Augmentation charge Rinner = 1.001                       |                
   | Partial core correction Rc = 1.001                       |                
   ------------------------------------------------------------                
   | "3|2.4|2.4|1.0|8|9|10|40:41:32U2U2(qc=5.5)"              |                
   ------------------------------------------------------------                
   |      Author: Chris J. Pickard, Cambridge University      |                
   ============================================================                
 
 Pseudo atomic calculation performed for Al 3s2 3p1
 
 Converged in 13 iterations to a total energy of -107.6592 eV
 
 Pseudo atomic calculation performed for Ni 3d8 4s2
 
 Converged in 41 iterations to a total energy of -1369.7891 eV
 Calculation parallelised over 48 processes.
 Data is distributed by G-vector(48-way)

 ************************************ Title ************************************
 

 ***************************** General Parameters ******************************
  
 output verbosity                               : normal  (1)
 write checkpoint data to                       : castep.check
 type of calculation                            : geometry optimization
 stress calculation                             : off
 density difference calculation                 : off
 electron localisation func (ELF) calculation   : off
 Hirshfeld analysis                             : off
 molecular orbital projected DOS                : off
 deltaSCF calculation                           : off
 unlimited duration calculation
 timing information                             : on
 memory usage estimate                          : on
 write extra output files                       : on
 write final potential to formatted file        : off
 write final density to formatted file          : off
 write BibTeX reference list                    : on
 write OTFG pseudopotential files               : on
 write electrostatic potential file             : on
 write bands file                               : on
 checkpoint writing                             : both castep_bin and check files
  
 output         length unit                     : A
 output           mass unit                     : amu
 output           time unit                     : ps
 output         charge unit                     : e
 output           spin unit                     : hbar/2
 output         energy unit                     : eV
 output          force unit                     : eV/A
 output       velocity unit                     : A/ps
 output       pressure unit                     : GPa
 output     inv_length unit                     : 1/A
 output      frequency unit                     : cm-1
 output force constant unit                     : eV/A**2
 output         volume unit                     : A**3
 output   IR intensity unit                     : (D/A)**2/amu
 output         dipole unit                     : D
 output         efield unit                     : eV/A/e
 output        entropy unit                     : J/mol/K
 output    efield chi2 unit                     : pm/V
  
 wavefunctions paging                           : none
 random number generator seed                   : randomised (185825184)
 data distribution                              : optimal for this architecture
 optimization strategy                          : maximize speed(+++)

 *********************** Exchange-Correlation Parameters ***********************
  
 using functional                               : revised Perdew Burke Ernzerhof
 relativistic treatment                         : Koelling-Harmon
 DFT+D: Semi-empirical dispersion correction    : off

 ************************* Pseudopotential Parameters **************************
  
 pseudopotential representation                 : reciprocal space
 <beta|phi> representation                      : reciprocal space
 spin-orbit coupling                            : off

 **************************** Basis Set Parameters *****************************
  
 plane wave basis set cut-off                   :   900.0000   eV
 size of standard grid                          :     1.7500
 size of   fine   gmax                          :    26.8966   1/A
 finite basis set correction                    : none

 **************************** Electronic Parameters ****************************
  
 number of  electrons                           :  2109.    
 net charge of system                           :  0.000    
 net spin   of system                           :  1.000    
 number of  up  spins                           :  1055.    
 number of down spins                           :  1054.    
 treating system as spin-polarized
 number of bands                                :       1167

 ********************* Electronic Minimization Parameters **********************
  
 Method: Treating system as metallic with density mixing treatment of electrons,
         and number of  SD  steps               :          1
         and number of  CG  steps               :          4
  
 total energy / atom convergence tol.           : 0.1000E-05   eV
 eigen-energy convergence tolerance             : 0.2185E-06   eV
 max force / atom convergence tol.              : ignored
 convergence tolerance window                   :          3   cycles
 max. number of SCF cycles                      :        200
 number of fixed-spin iterations                :         10
 smearing scheme                                : Gaussian
 smearing width                                 : 0.2000       eV
 Fermi energy convergence tolerance             : 0.2721E-13   eV
 periodic dipole correction                     : NONE
 periodically dump wavefunctions to             : castep.wvfn
 dump wavefunctions every                       :          1   SCF cycles

 ************************** Density Mixing Parameters **************************
  
 density-mixing scheme                          : Pulay
 max. length of mixing history                  :         20
 charge density mixing amplitude                : 0.8000    
   spin density mixing amplitude                :  2.000    
 cut-off energy for mixing                      :  900.0       eV

 *********************** Population Analysis Parameters ************************
  
 Population analysis with cutoff                :  3.000       A
 Population analysis output                     : summary and pdos components

 ********************** Geometry Optimization Parameters ***********************
  
 optimization method                            : LBFGS
 max. no. of LBFGS updates                      : unbounded
 variable cell method                           : fixed basis quality
 max. number of steps                           :         30
 estimated bulk modulus                         :  500.0       GPa
 estimated <frequency>                          :  1668.       cm-1
 geom line minimiser                            : on
 with line minimiser tolerance                  :     0.4000
  with spin fully able to relax for all steps
 total energy convergence tolerance             : 0.2000E-04   eV/atom
        max ionic |force| tolerance             : 0.5000E-01   eV/A
 max ionic |displacement| tolerance             : 0.1000E-02   A
   max |stress component| tolerance             : 0.1000       GPa
 convergence tolerance window                   :          2   steps
 backup results every                           :          5   steps
 write geom trajectory file                     : on

 *******************************************************************************
  
 
                           -------------------------------
                                      Unit Cell
                           -------------------------------
        Real Lattice(A)                      Reciprocal Lattice(1/A)
    14.4648280     0.0000000     0.0000000        0.434376773   0.000000000   0.000000000
     0.0000000    14.4648280     0.0000000        0.000000000   0.434376773   0.000000000
     0.0000000     0.0000000    14.4648280        0.000000000   0.000000000   0.434376773
 
                       Lattice parameters(A)       Cell Angles
                    a =     14.464828          alpha =   90.000000
                    b =     14.464828          beta  =   90.000000
                    c =     14.464828          gamma =   90.000000
 
                       Current cell volume =          3026.494030       A**3
                                   density =             4.285146   AMU/A**3
                                           =             7.115653     g/cm^3
 
                           -------------------------------
                                     Cell Contents
                           -------------------------------
                         Total number of ions in cell =  255
                      Total number of species in cell =    2
                        Max number of any one species =  192
 
            xxxxxxxxxxxxxxxxxxxxxxxxxxxxxxxxxxxxxxxxxxxxxxxxxxxxxxxxxxxx
            x  Element    Atom        Fractional coordinates of atoms  x
            x            Number           u          v          w      x
            x----------------------------------------------------------x
            x  Al           1         0.570703   0.307412   0.814008   x 
            x  Al           2         0.818247   0.309209   0.812755   x 
            x  Al           3         0.569890   0.559265   0.815376   x 
            x  Al           4         0.817593   0.558238   0.813193   x 
            x  Al           5         0.575315   0.809633   0.809882   x 
            x  Al           6         0.819097   0.807799   0.812325   x 
            x  Al           7         0.572249   0.058446   0.813007   x 
            x  Al           8         0.819965   0.059146   0.811977   x 
            x  Al           9         0.569609   0.305957   0.062228   x 
            x  Al          10         0.817809   0.308657   0.063476   x 
            x  Al          11         0.573354   0.554874   0.061430   x 
            x  Al          12         0.816692   0.558097   0.063515   x 
            x  Al          13         0.577335   0.814384   0.062682   x 
            x  Al          14         0.819188   0.808326   0.063092   x 
            x  Al          15         0.574364   0.057120   0.058908   x 
            x  Al          16         0.819966   0.058970   0.062900   x 
            x  Al          17         0.570286   0.306334   0.311672   x 
            x  Al          18         0.817075   0.309540   0.312893   x 
            x  Al          19         0.567347   0.559717   0.311046   x 
            x  Al          20         0.816089   0.558299   0.312631   x 
            x  Al          21         0.574657   0.809404   0.315778   x 
            x  Al          22         0.818573   0.807348   0.313562   x 
            x  Al          23         0.577136   0.057430   0.318821   x 
            x  Al          24         0.819624   0.058861   0.313713   x 
            x  Al          25         0.571631   0.308631   0.563527   x 
            x  Al          26         0.817116   0.310220   0.562757   x 
            x  Al          27         0.568939   0.558951   0.564413   x 
            x  Al          28         0.816562   0.557895   0.562589   x 
            x  Al          29         0.570705   0.808503   0.564018   x 
            x  Al          30         0.819224   0.807163   0.563079   x 
            x  Al          31         0.572557   0.057945   0.562647   x 
            x  Al          32         0.820033   0.059090   0.563515   x 
            x  Al          33         0.328675   0.182470   0.683952   x 
            x  Al          34         0.056308   0.057832   0.557583   x 
            x  Al          35         0.192985   0.190310   0.554625   x 
            x  Al          36         0.321477   0.935465   0.689208   x 
            x  Al          37         0.192684   0.929545   0.554602   x 
            x  Al          38         0.318584   0.689973   0.693811   x 
            x  Al          39         0.074757   0.687578   0.679136   x 
            x  Al          40         0.198676   0.188618   0.322249   x 
            x  Al          41         0.067330   0.805451   0.315473   x 
            x  Al          42         0.326103   0.684973   0.438500   x 
            x  Al          43         0.194380   0.667449   0.313211   x 
            x  Al          44         0.337256   0.428741   0.430323   x 
            x  Al          45         0.328544   0.555024   0.569533   x 
            x  Al          46         0.192231   0.432860   0.306420   x 
            x  Al          47         0.063815   0.435403   0.438077   x 
            x  Al          48         0.317533   0.060381   0.061863   x 
            x  Al          49         0.440417   0.057058   0.194603   x 
            x  Al          50         0.185863   0.054901   0.935124   x 
            x  Al          51         0.068503   0.185175   0.191360   x 
            x  Al          52         0.433476   0.814669   0.189335   x 
            x  Al          53         0.070940   0.945099   0.191919   x 
            x  Al          54         0.201473   0.808508   0.181727   x 
            x  Al          55         0.432149   0.677788   0.059855   x 
            x  Al          56         0.334542   0.430828   0.188818   x 
            x  Al          57         0.188509   0.425175   0.063060   x 
            x  Al          58         0.187106   0.186344   0.807230   x 
            x  Al          59         0.434355   0.816940   0.935051   x 
            x  Al          60         0.191723   0.811550   0.937427   x 
            x  Al          61         0.191590   0.426146   0.805268   x 
            x  Al          62         0.193530   0.427349   0.571026   x 
            x  Al          63         0.188911   0.565162   0.934071   x 
            x  Ni           1         0.568084   0.431579   0.937416   x 
            x  Ni           2         0.694189   0.307832   0.938157   x 
            x  Ni           3         0.693652   0.433456   0.813679   x 
            x  Ni           4         0.817442   0.433623   0.938629   x 
            x  Ni           5         0.942282   0.309352   0.938036   x 
            x  Ni           6         0.942026   0.434081   0.812843   x 
            x  Ni           7         0.564538   0.687879   0.941092   x 
            x  Ni           8         0.693034   0.558931   0.938123   x 
            x  Ni           9         0.693541   0.683085   0.813972   x 
            x  Ni          10         0.818574   0.683031   0.938122   x 
            x  Ni          11         0.941935   0.558343   0.938231   x 
            x  Ni          12         0.942517   0.682760   0.812727   x 
            x  Ni          13         0.569270   0.932616   0.935582   x 
            x  Ni          14         0.695880   0.808933   0.937002   x 
            x  Ni          15         0.696473   0.934211   0.811715   x 
            x  Ni          16         0.820190   0.933581   0.937131   x 
            x  Ni          17         0.942727   0.807886   0.937685   x 
            x  Ni          18         0.943292   0.933129   0.812284   x 
            x  Ni          19         0.569017   0.182490   0.937278   x 
            x  Ni          20         0.696291   0.058331   0.936467   x 
            x  Ni          21         0.694844   0.183634   0.812467   x 
            x  Ni          22         0.819210   0.183991   0.937603   x 
            x  Ni          23         0.943202   0.058865   0.937522   x 
            x  Ni          24         0.943037   0.184552   0.812508   x 
            x  Ni          25         0.562014   0.432035   0.190814   x 
            x  Ni          26         0.691778   0.307450   0.187565   x 
            x  Ni          27         0.692013   0.431826   0.064123   x 
            x  Ni          28         0.816723   0.433648   0.188263   x 
            x  Ni          29         0.942211   0.309353   0.188370   x 
            x  Ni          30         0.941757   0.433965   0.063366   x 
            x  Ni          31         0.563820   0.688619   0.183093   x 
            x  Ni          32         0.690685   0.558878   0.187670   x 
            x  Ni          33         0.693688   0.683938   0.062811   x 
            x  Ni          34         0.817655   0.682953   0.188175   x 
            x  Ni          35         0.941797   0.558438   0.188240   x 
            x  Ni          36         0.942236   0.682953   0.063238   x 
            x  Ni          37         0.568148   0.934986   0.189944   x 
            x  Ni          38         0.694876   0.809441   0.188651   x 
            x  Ni          39         0.697451   0.934904   0.062687   x 
            x  Ni          40         0.820068   0.933477   0.188600   x 
            x  Ni          41         0.942642   0.807810   0.188409   x 
            x  Ni          42         0.942990   0.933265   0.062982   x 
            x  Ni          43         0.568961   0.177790   0.187814   x 
            x  Ni          44         0.695431   0.057655   0.188497   x 
            x  Ni          45         0.694966   0.182750   0.062706   x 
            x  Ni          46         0.818724   0.183905   0.188196   x 
            x  Ni          47         0.943249   0.058814   0.188469   x 
            x  Ni          48         0.942748   0.184222   0.063090   x 
            x  Ni          49         0.563623   0.433791   0.432821   x 
            x  Ni          50         0.692610   0.309597   0.437738   x 
            x  Ni          51         0.690944   0.433685   0.311878   x 
            x  Ni          52         0.816566   0.434356   0.437468   x 
            x  Ni          53         0.942359   0.309923   0.437896   x 
            x  Ni          54         0.941926   0.434236   0.313043   x 
            x  Ni          55         0.567433   0.684534   0.439126   x 
            x  Ni          56         0.690520   0.558327   0.437360   x 
            x  Ni          57         0.691776   0.682959   0.312033   x 
            x  Ni          58         0.817361   0.682051   0.437735   x 
            x  Ni          59         0.942033   0.558362   0.437732   x 
            x  Ni          60         0.942249   0.682712   0.313174   x 
            x  Ni          61         0.570510   0.932733   0.440253   x 
            x  Ni          62         0.695254   0.807630   0.439486   x 
            x  Ni          63         0.696983   0.933155   0.314374   x 
            x  Ni          64         0.820090   0.932779   0.438923   x 
            x  Ni          65         0.942845   0.807338   0.438128   x 
            x  Ni          66         0.943111   0.933038   0.313580   x 
            x  Ni          67         0.571307   0.182275   0.439188   x 
            x  Ni          68         0.697558   0.058304   0.440096   x 
            x  Ni          69         0.695487   0.183729   0.313333   x 
            x  Ni          70         0.818897   0.185015   0.438516   x 
            x  Ni          71         0.943174   0.058929   0.438292   x 
            x  Ni          72         0.942574   0.184494   0.313336   x 
            x  Ni          73         0.568011   0.433795   0.690694   x 
            x  Ni          74         0.693259   0.308978   0.688393   x 
            x  Ni          75         0.690438   0.434403   0.562158   x 
            x  Ni          76         0.817124   0.434071   0.687517   x 
            x  Ni          77         0.942556   0.309804   0.687455   x 
            x  Ni          78         0.942131   0.434285   0.562560   x 
            x  Ni          79         0.568191   0.684295   0.688863   x 
            x  Ni          80         0.692463   0.558435   0.688826   x 
            x  Ni          81         0.693187   0.682535   0.563298   x 
            x  Ni          82         0.818069   0.682288   0.687963   x 
            x  Ni          83         0.942221   0.558270   0.687661   x 
            x  Ni          84         0.942404   0.682374   0.562742   x 
            x  Ni          85         0.569600   0.934266   0.687084   x 
            x  Ni          86         0.695694   0.808113   0.687128   x 
            x  Ni          87         0.696002   0.933038   0.563648   x 
            x  Ni          88         0.819993   0.933420   0.687446   x 
            x  Ni          89         0.942901   0.807525   0.687627   x 
            x  Ni          90         0.943642   0.933003   0.562949   x 
            x  Ni          91         0.568738   0.182413   0.688035   x 
            x  Ni          92         0.695330   0.058892   0.687507   x 
            x  Ni          93         0.694898   0.184231   0.563693   x 
            x  Ni          94         0.819133   0.184666   0.687661   x 
            x  Ni          95         0.943692   0.058987   0.687469   x 
            x  Ni          96         0.943074   0.184934   0.562795   x 
            x  Ni          97         0.071320   0.430809   0.933916   x 
            x  Ni          98         0.191717   0.305948   0.934624   x 
            x  Ni          99         0.064554   0.305679   0.808629   x 
            x  Ni         100         0.312291   0.432131   0.934949   x 
            x  Ni         101         0.442912   0.305783   0.938032   x 
            x  Ni         102         0.317118   0.557906   0.811790   x 
            x  Ni         103         0.320129   0.304294   0.811449   x 
            x  Ni         104         0.065608   0.560651   0.806474   x 
            x  Ni         105         0.065441   0.687320   0.936659   x 
            x  Ni         106         0.314952   0.684746   0.933468   x 
            x  Ni         107         0.442368   0.558222   0.936716   x 
            x  Ni         108         0.444613   0.686767   0.815745   x 
            x  Ni         109         0.190063   0.686604   0.810810   x 
            x  Ni         110         0.065979   0.934453   0.935738   x 
            x  Ni         111         0.316479   0.813057   0.812328   x 
            x  Ni         112         0.189883   0.936594   0.807730   x 
            x  Ni         113         0.313681   0.938974   0.934984   x 
            x  Ni         114         0.318271   0.811200   0.059656   x 
            x  Ni         115         0.444845   0.936017   0.812025   x 
            x  Ni         116         0.065543   0.181142   0.934144   x 
            x  Ni         117         0.315613   0.061877   0.809538   x 
            x  Ni         118         0.066721   0.058578   0.805869   x 
            x  Ni         119         0.314680   0.179894   0.935740   x 
            x  Ni         120         0.443283   0.057078   0.937459   x 
            x  Ni         121         0.445095   0.181867   0.813441   x 
            x  Ni         122         0.192978   0.061183   0.678172   x 
            x  Ni         123         0.065427   0.430632   0.187731   x 
            x  Ni         124         0.194665   0.307061   0.188923   x 
            x  Ni         125         0.063970   0.304271   0.061892   x 
            x  Ni         126         0.447646   0.303071   0.186254   x 
            x  Ni         127         0.443904   0.432495   0.059358   x 
            x  Ni         128         0.319994   0.306569   0.061716   x 
            x  Ni         129         0.071866   0.683639   0.190036   x 
            x  Ni         130         0.194031   0.552361   0.183868   x 
            x  Ni         131         0.192448   0.682987   0.061116   x 
            x  Ni         132         0.066932   0.557823   0.061340   x 
            x  Ni         133         0.316430   0.680138   0.188006   x 
            x  Ni         134         0.445791   0.560132   0.183885   x 
            x  Ni         135         0.314490   0.552763   0.059183   x 
            x  Ni         136         0.066966   0.060707   0.063435   x 
            x  Ni         137         0.070336   0.813700   0.066447   x 
            x  Ni         138         0.315045   0.937894   0.189777   x 
            x  Ni         139         0.444061   0.936401   0.063777   x 
            x  Ni         140         0.191260   0.937617   0.063126   x 
            x  Ni         141         0.194719   0.063943   0.191025   x 
            x  Ni         142         0.191117   0.184135   0.061120   x 
            x  Ni         143         0.318007   0.182922   0.189288   x 
            x  Ni         144         0.443768   0.178613   0.062822   x 
            x  Ni         145         0.065343   0.309463   0.314454   x 
            x  Ni         146         0.450578   0.305304   0.436534   x 
            x  Ni         147         0.325582   0.310442   0.311252   x 
            x  Ni         148         0.067111   0.678450   0.438451   x 
            x  Ni         149         0.064711   0.555900   0.313984   x 
            x  Ni         150         0.200305   0.547759   0.441557   x 
            x  Ni         151         0.446831   0.560306   0.438077   x 
            x  Ni         152         0.445061   0.685623   0.310205   x 
            x  Ni         153         0.325761   0.552982   0.312504   x 
            x  Ni         154         0.065125   0.931752   0.436105   x 
            x  Ni         155         0.193442   0.802502   0.434203   x 
            x  Ni         156         0.191674   0.933028   0.314962   x 
            x  Ni         157         0.318344   0.931751   0.438213   x 
            x  Ni         158         0.445856   0.809513   0.436539   x 
            x  Ni         159         0.444355   0.933494   0.314870   x 
            x  Ni         160         0.316067   0.806010   0.313356   x 
            x  Ni         161         0.065601   0.186310   0.436453   x 
            x  Ni         162         0.191398   0.059262   0.440845   x 
            x  Ni         163         0.068520   0.062367   0.315844   x 
            x  Ni         164         0.320897   0.186004   0.439809   x 
            x  Ni         165         0.446303   0.057523   0.437183   x 
            x  Ni         166         0.445736   0.180999   0.314114   x 
            x  Ni         167         0.318100   0.059598   0.317546   x 
            x  Ni         168         0.066443   0.431438   0.684571   x 
            x  Ni         169         0.194922   0.302886   0.684822   x 
            x  Ni         170         0.195593   0.318248   0.436831   x 
            x  Ni         171         0.063921   0.309022   0.558224   x 
            x  Ni         172         0.320760   0.431446   0.689020   x 
            x  Ni         173         0.447879   0.307719   0.689054   x 
            x  Ni         174         0.448082   0.432540   0.564202   x 
            x  Ni         175         0.324247   0.309979   0.562142   x 
            x  Ni         176         0.067216   0.810937   0.808141   x 
            x  Ni         177         0.194462   0.558456   0.687372   x 
            x  Ni         178         0.199944   0.680078   0.560106   x 
            x  Ni         179         0.066456   0.557303   0.561976   x 
            x  Ni         180         0.442673   0.431832   0.815461   x 
            x  Ni         181         0.443715   0.684741   0.565904   x 
            x  Ni         182         0.445396   0.559966   0.693293   x 
            x  Ni         183         0.068181   0.932516   0.680099   x 
            x  Ni         184         0.194823   0.811524   0.684256   x 
            x  Ni         185         0.066732   0.807094   0.557607   x 
            x  Ni         186         0.445030   0.810625   0.690331   x 
            x  Ni         187         0.444836   0.933846   0.562615   x 
            x  Ni         188         0.321262   0.809444   0.562907   x 
            x  Ni         189         0.066441   0.183160   0.680205   x 
            x  Ni         190         0.320332   0.057864   0.560928   x 
            x  Ni         191         0.446348   0.057549   0.687457   x 
            x  Ni         192         0.447069   0.182445   0.561491   x 
            xxxxxxxxxxxxxxxxxxxxxxxxxxxxxxxxxxxxxxxxxxxxxxxxxxxxxxxxxxxx
 
 
                         No user defined ionic velocities
 
                           -------------------------------
                                   Details of Species
                           -------------------------------
 
                               Mass of species in AMU
                                    Al   26.9815400
                                    Ni   58.6934000
 
                          Electric Quadrupole Moment (Barn)
                                    Al    0.1466000 Isotope 27
                                    Ni    0.1620000 Isotope 61
 
                          Files used for pseudopotentials:
                                    Al 3|2.2|2.2|1.4|4|5|5|30:31:32U2U2
                                    Ni 3|2.4|2.4|1.0|8|9|10|40:41:32U2U2(qc=5.5)
 
                           -------------------------------
                              k-Points For BZ Sampling
                           -------------------------------
                       MP grid size for SCF calculation is  1  1  1
                            with an offset of   0.000  0.000  0.000
                       Number of kpoints used =             1
 
                           -------------------------------
                               Symmetry and Constraints
                           -------------------------------
 
                      Maximum deviation from symmetry =  0.00000         ANG
 
                      Number of symmetry operations   =           1
                      Number of ionic constraints     =           3
                      Point group of crystal =     1: C1, 1, 1
                      Space group of crystal =     1: P1, P 1
 
             Set iprint > 1 for details on symmetry rotations/translations
 
                         Centre of mass is constrained
             Set iprint > 1 for details of linear ionic constraints
 
                         Number of cell constraints= 6
                         Cell constraints are:  0 0 0 0 0 0
 
                         External pressure/stress (GPa)
                          0.00000   0.00000   0.00000
                                    0.00000   0.00000
                                              0.00000
  
+---------------- MEMORY AND SCRATCH DISK ESTIMATES PER PROCESS --------------+
|                                                     Memory          Disk    |
| Baseline code, static data and system overhead      622.0 MB         0.0 MB |
| BLAS internal memory storage                          0.0 MB         0.0 MB |
| Model and support data                              741.5 MB         0.0 MB |
| Electronic energy minimisation requirements         236.0 MB         0.0 MB |
| Force calculation requirements                        7.9 MB         0.0 MB |
|                                               ----------------------------- |
| Approx. total storage required per process         1599.5 MB         0.0 MB |
|                                                                             |
| Requirements will fluctuate during execution and may exceed these estimates |
+-----------------------------------------------------------------------------+
Calculating total energy with cut-off of  900.000 eV.
------------------------------------------------------------------------ <-- SCF
SCF loop      Energy           Fermi           Energy gain       Timer   <-- SCF
                               energy          per atom          (sec)   <-- SCF
------------------------------------------------------------------------ <-- SCF
Initial  -2.19148878E+005  0.00000000E+000                        20.49  <-- SCF
      1  -2.63677662E+005  7.11521947E+000   1.74622685E+002     105.84  <-- SCF
      2  -2.70651036E+005  3.64941739E+000   2.73465642E+001     187.77  <-- SCF
      3  -2.71370559E+005  3.53650222E+000   2.82165630E+000     271.34  <-- SCF
      4  -2.71426389E+005  3.65379564E+000   2.18942100E-001     347.52  <-- SCF
      5  -2.71710529E+005  6.62199874E+000   1.11427589E+000     442.58  <-- SCF
      6  -2.71508800E+005  5.53744301E+000  -7.91095094E-001     551.83  <-- SCF
      7  -2.71402976E+005  4.53776171E+000  -4.14994814E-001     651.13  <-- SCF
      8  -2.71386686E+005  4.41400398E+000  -6.38849168E-002     753.03  <-- SCF
      9  -2.71397779E+005  4.48488538E+000   4.35043308E-002     847.61  <-- SCF
     10  -2.71394963E+005  4.43807799E+000  -1.10425830E-002     945.90  <-- SCF
     11  -2.72218185E+005  6.11784208E+000   3.22832155E+000    1048.19  <-- SCF
     12  -2.72229548E+005  6.07478878E+000   4.45581498E-002    1134.81  <-- SCF
     13  -2.71491458E+005  4.79298579E+000  -2.89446862E+000    1265.82  <-- SCF
     14  -2.71563570E+005  4.80331294E+000   2.82790028E-001    1347.31  <-- SCF
     15  -2.71434349E+005  4.33030472E+000  -5.06747605E-001    1446.79  <-- SCF
     16  -2.71398530E+005  4.22965841E+000  -1.40466001E-001    1545.41  <-- SCF
     17  -2.71393254E+005  4.28106313E+000  -2.06912508E-002    1636.76  <-- SCF
     18  -2.71390222E+005  4.34395270E+000  -1.18884369E-002    1729.22  <-- SCF
     19  -2.71387608E+005  4.36814716E+000  -1.02534275E-002    1822.68  <-- SCF
     20  -2.71386214E+005  4.36614077E+000  -5.46509836E-003    1916.71  <-- SCF
     21  -2.71385822E+005  4.35566726E+000  -1.53825418E-003    2010.40  <-- SCF
     22  -2.71385694E+005  4.35030341E+000  -4.99967537E-004    2104.07  <-- SCF
     23  -2.71385550E+005  4.35281660E+000  -5.67967436E-004    2199.43  <-- SCF
     24  -2.71385470E+005  4.36288343E+000  -3.12605129E-004    2292.95  <-- SCF
     25  -2.71385405E+005  4.36674623E+000  -2.53590988E-004    2385.58  <-- SCF
     26  -2.71385252E+005  4.37157791E+000  -5.99557953E-004    2480.89  <-- SCF
     27  -2.71385178E+005  4.37347116E+000  -2.90689232E-004    2575.81  <-- SCF
     28  -2.71385165E+005  4.37493729E+000  -5.17292813E-005    2670.99  <-- SCF
     29  -2.71385145E+005  4.37754709E+000  -7.68741605E-005    2765.35  <-- SCF
     30  -2.71385144E+005  4.37805550E+000  -7.55633843E-006    2851.43  <-- SCF
     31  -2.71385143E+005  4.37897064E+000  -3.66022063E-006    2942.91  <-- SCF
     32  -2.71385140E+005  4.37982233E+000  -8.49448434E-006    3026.54  <-- SCF
     33  -2.71385140E+005  4.37982866E+000  -6.72873206E-007    3088.08  <-- SCF
     34  -2.71385140E+005  4.38006578E+000   6.37440958E-007    3149.14  <-- SCF
------------------------------------------------------------------------ <-- SCF
 
Integrated Spin Density     =    0.144426     hbar/2                        
Integrated |Spin Density|   =    0.225381     hbar/2                        
 
Final energy, E             =  -271380.6450072     eV
Final free energy (E-TS)    =  -271385.1404117     eV
(energies not corrected for finite basis set)
 
NB est. 0K energy (E-0.5TS)      =  -271382.8927094     eV
 

Writing analysis data to castep.castep_bin

Writing model to castep.check
 
+---------------- MEMORY AND SCRATCH DISK ESTIMATES PER PROCESS --------------+
|                                                     Memory          Disk    |
| Model and support data                              750.6 MB         0.0 MB |
| Electronic energy minimisation requirements         236.0 MB         0.0 MB |
| Geometry minimisation requirements                  309.4 MB         0.0 MB |
|                                               ----------------------------- |
| Approx. total storage required per process         1296.0 MB         0.0 MB |
|                                                                             |
| Requirements will fluctuate during execution and may exceed these estimates |
+-----------------------------------------------------------------------------+
 
 
 ************************************** Forces **************************************
 *                                                                                  *
 *                           Cartesian components (eV/A)                            *
 * -------------------------------------------------------------------------------- *
 *                         x                    y                    z              *
 *                                                                                  *
 * Al              1     -0.11941             -0.00506             -0.02617         *
 * Al              2      0.04686             -0.02538             -0.00489         *
 * Al              3     -0.10603             -0.02144              0.00944         *
 * Al              4      0.08341             -0.01043              0.00534         *
 * Al              5     -0.08409              0.00047             -0.13498         *
 * Al              6      0.11932              0.02599              0.00471         *
 * Al              7     -0.16068              0.03679             -0.02799         *
 * Al              8      0.07055              0.01731             -0.02658         *
 * Al              9     -0.08886              0.04937             -0.02114         *
 * Al             10      0.06465              0.01105             -0.02558         *
 * Al             11     -0.05657             -0.13415             -0.01507         *
 * Al             12      0.10605              0.00265             -0.01216         *
 * Al             13      0.34857              0.07409             -0.01235         *
 * Al             14      0.05150             -0.04074             -0.03366         *
 * Al             15     -0.02969              0.00880             -0.11300         *
 * Al             16      0.08241              0.03045             -0.02464         *
 * Al             17     -0.20485              0.05548              0.01283         *
 * Al             18      0.05239              0.01571             -0.00674         *
 * Al             19     -0.16307             -0.08168             -0.01237         *
 * Al             20      0.08864              0.00821             -0.01569         *
 * Al             21     -0.02834              0.02775              0.12852         *
 * Al             22      0.11403             -0.00586             -0.00008         *
 * Al             23      0.01148              0.00729              0.11833         *
 * Al             24      0.02652              0.00002             -0.01402         *
 * Al             25     -0.12384             -0.05739              0.01419         *
 * Al             26      0.00656             -0.02389              0.01164         *
 * Al             27     -0.12117             -0.00888              0.02554         *
 * Al             28      0.07223              0.02574              0.00534         *
 * Al             29     -0.15270              0.05057              0.00953         *
 * Al             30      0.05676              0.00450              0.01577         *
 * Al             31     -0.18915              0.02301              0.01238         *
 * Al             32      0.09111             -0.02672              0.03108         *
 * Al             33      0.13609              0.10258              0.12218         *
 * Al             34      0.30842              0.16240              0.29236         *
 * Al             35     -0.03551             -0.00780             -0.07458         *
 * Al             36      0.16445              0.04873              0.21356         *
 * Al             37     -0.04997             -0.29156             -0.04922         *
 * Al             38      0.04917              0.06840              0.19174         *
 * Al             39     -0.56769             -0.28571              0.53419         *
 * Al             40      0.14784             -0.17054             -0.03702         *
 * Al             41     -0.76214             -0.03296              0.59911         *
 * Al             42      0.21543              0.29888             -0.06920         *
 * Al             43     -0.07448             -0.17709             -0.05998         *
 * Al             44      0.20654             -0.15985             -0.22115         *
 * Al             45     -0.03947              0.00674              0.15173         *
 * Al             46     -0.04911              0.09054             -0.12815         *
 * Al             47     -0.62772             -0.08733              0.03502         *
 * Al             48     -0.24115             -0.06889             -0.02754         *
 * Al             49      0.01698              0.16362              0.13406         *
 * Al             50     -0.29645              0.05119             -0.04490         *
 * Al             51     -0.51858             -0.08887             -0.66857         *
 * Al             52     -0.12646              0.06363              0.20053         *
 * Al             53     -0.60675             -0.02626             -0.64780         *
 * Al             54      0.09551             -0.06321             -0.16924         *
 * Al             55     -0.18043             -0.19879             -0.04062         *
 * Al             56      0.24081              0.00451             -0.06576         *
 * Al             57     -0.20201             -0.11069             -0.11809         *
 * Al             58     -0.08674              0.03265              0.13455         *
 * Al             59     -0.00573              0.09023             -0.27340         *
 * Al             60     -0.19216             -0.03160             -0.14424         *
 * Al             61      0.01048              0.04209              0.01119         *
 * Al             62     -0.15830             -0.02260              0.25708         *
 * Al             63     -0.03683              0.11239             -0.00493         *
 * Ni              1     -0.00392              0.05007             -0.04778         *
 * Ni              2      0.00674             -0.00538              0.01321         *
 * Ni              3      0.02534              0.01908              0.01740         *
 * Ni              4      0.09531             -0.01178             -0.00395         *
 * Ni              5      0.18474             -0.03356             -0.05094         *
 * Ni              6      0.16514              0.04385             -0.05383         *
 * Ni              7      0.11949              0.20476              0.30765         *
 * Ni              8      0.02770             -0.01312              0.01428         *
 * Ni              9      0.03861              0.00385             -0.02300         *
 * Ni             10     -0.01051              0.00292              0.02184         *
 * Ni             11      0.37821             -0.05823             -0.06683         *
 * Ni             12      0.22338              0.09970             -0.03248         *
 * Ni             13      0.09999             -0.15400              0.18175         *
 * Ni             14     -0.06010             -0.01232              0.00309         *
 * Ni             15     -0.09146             -0.02479              0.03337         *
 * Ni             16     -0.02370              0.00156             -0.01522         *
 * Ni             17      0.17781              0.11669              0.00912         *
 * Ni             18      0.14831             -0.00529             -0.15290         *
 * Ni             19     -0.00186             -0.00478              0.08477         *
 * Ni             20      0.05422              0.00883              0.00577         *
 * Ni             21     -0.00886             -0.00403             -0.01001         *
 * Ni             22      0.02646              0.00612             -0.02437         *
 * Ni             23      0.20601             -0.00618             -0.04644         *
 * Ni             24      0.06102             -0.13238             -0.13579         *
 * Ni             25      0.22635              0.04945             -0.20867         *
 * Ni             26      0.07676              0.05974              0.02606         *
 * Ni             27      0.07922              0.00037             -0.03159         *
 * Ni             28      0.03248              0.01662             -0.05928         *
 * Ni             29      0.11126              0.06292             -0.00255         *
 * Ni             30      0.26121             -0.06375             -0.11263         *
 * Ni             31      0.14216              0.21096             -0.26500         *
 * Ni             32      0.00336             -0.03199              0.03461         *
 * Ni             33     -0.05331              0.02501              0.00735         *
 * Ni             34     -0.03428             -0.06972             -0.02530         *
 * Ni             35      0.23985             -0.00600             -0.00916         *
 * Ni             36      0.31244              0.09440              0.05521         *
 * Ni             37      0.20853             -0.05098             -0.07062         *
 * Ni             38      0.02676             -0.02867             -0.00114         *
 * Ni             39     -0.07581             -0.00002              0.02357         *
 * Ni             40     -0.01790             -0.04034             -0.02285         *
 * Ni             41      0.41156              0.00650             -0.02573         *
 * Ni             42      0.26923              0.06565             -0.05624         *
 * Ni             43      0.09025             -0.04675              0.02871         *
 * Ni             44      0.09335             -0.00686             -0.01049         *
 * Ni             45     -0.03337             -0.01106              0.02776         *
 * Ni             46      0.02235              0.06556             -0.01252         *
 * Ni             47     -0.08041              0.14770              0.10377         *
 * Ni             48     -0.01178             -0.11482             -0.09722         *
 * Ni             49      0.20730             -0.05526              0.12776         *
 * Ni             50      0.00314             -0.02492             -0.02854         *
 * Ni             51     -0.09292              0.01217             -0.00767         *
 * Ni             52      0.08382             -0.01330              0.01245         *
 * Ni             53     -0.08291             -0.22730             -0.08127         *
 * Ni             54     -0.14772             -0.05882             -0.21677         *
 * Ni             55      0.09553              0.00187             -0.15399         *
 * Ni             56      0.01988              0.02581             -0.04972         *
 * Ni             57      0.02127              0.02194              0.01348         *
 * Ni             58     -0.00541              0.02269             -0.02115         *
 * Ni             59     -0.03929              0.20665              0.00162         *
 * Ni             60      0.11816             -0.12907             -0.04964         *
 * Ni             61      0.09826              0.05373             -0.16166         *
 * Ni             62     -0.00637             -0.01027              0.00609         *
 * Ni             63     -0.11332              0.00090             -0.05078         *
 * Ni             64     -0.03773              0.01164              0.01667         *
 * Ni             65      0.02171             -0.11496              0.09723         *
 * Ni             66      0.14882              0.02824             -0.04025         *
 * Ni             67      0.08359              0.00057             -0.14473         *
 * Ni             68     -0.00641             -0.00420             -0.00413         *
 * Ni             69     -0.01853             -0.03926             -0.02080         *
 * Ni             70      0.00368             -0.03391              0.00455         *
 * Ni             71     -0.22540              0.04949             -0.49944         *
 * Ni             72     -0.07573             -0.03649              0.11493         *
 * Ni             73      0.10023             -0.00685              0.05761         *
 * Ni             74      0.02784             -0.00266             -0.00313         *
 * Ni             75      0.09748             -0.00880              0.02615         *
 * Ni             76     -0.00515             -0.02914              0.04139         *
 * Ni             77      0.09064             -0.06361             -0.12877         *
 * Ni             78     -0.12963              0.00924              0.18476         *
 * Ni             79      0.11100             -0.03683              0.12884         *
 * Ni             80      0.03512              0.03220              0.00773         *
 * Ni             81      0.00926              0.02413             -0.00337         *
 * Ni             82      0.00030             -0.00757             -0.00457         *
 * Ni             83      0.11141             -0.05078             -0.11794         *
 * Ni             84      0.00859             -0.03134             -0.14087         *
 * Ni             85      0.12007             -0.00846              0.04771         *
 * Ni             86     -0.00174             -0.00372             -0.01137         *
 * Ni             87     -0.01205             -0.01082             -0.00544         *
 * Ni             88     -0.05463              0.02747              0.02097         *
 * Ni             89      0.14203              0.12083             -0.15518         *
 * Ni             90     -0.23409             -0.34992             -0.13188         *
 * Ni             91      0.12745              0.05930             -0.00657         *
 * Ni             92      0.00637             -0.03189              0.01333         *
 * Ni             93     -0.00643             -0.00338             -0.03202         *
 * Ni             94      0.01415              0.01367              0.01982         *
 * Ni             95     -0.11079             -0.07188              0.09508         *
 * Ni             96     -0.34603              0.26524             -0.13383         *
 * Ni             97     -0.27286              0.33374              0.07356         *
 * Ni             98      0.01443             -0.17668              0.17241         *
 * Ni             99      0.01234              0.29265              0.14282         *
 * Ni            100      0.22716              0.05802              0.12207         *
 * Ni            101     -0.20682              0.02967             -0.06840         *
 * Ni            102      0.03254             -0.10396              0.18182         *
 * Ni            103      0.09103              0.02410              0.06219         *
 * Ni            104      0.07832             -0.25525              0.44978         *
 * Ni            105     -0.07087             -0.17822              0.04078         *
 * Ni            106      0.32235             -0.05964              0.05493         *
 * Ni            107     -0.18558             -0.16296              0.00288         *
 * Ni            108     -0.07103             -0.00191              0.00537         *
 * Ni            109      0.01464             -0.00195             -0.04137         *
 * Ni            110     -0.16598             -0.17232              0.15409         *
 * Ni            111     -0.22178             -0.05188             -0.06032         *
 * Ni            112      0.03646             -0.14369             -0.04364         *
 * Ni            113      0.26197              0.13667              0.07241         *
 * Ni            114      0.01470             -0.02053              0.00829         *
 * Ni            115     -0.05942              0.01372              0.13971         *
 * Ni            116      0.09022              0.23288              0.17839         *
 * Ni            117      0.07343              0.02027              0.12767         *
 * Ni            118      0.11264             -0.00395              0.13294         *
 * Ni            119      0.16194              0.09381              0.02894         *
 * Ni            120     -0.02890              0.06337             -0.25658         *
 * Ni            121     -0.11931             -0.06369              0.24351         *
 * Ni            122     -0.17088             -0.05775              0.13433         *
 * Ni            123     -0.08518              0.15126             -0.14873         *
 * Ni            124      0.09992             -0.00486             -0.02339         *
 * Ni            125      0.16358              0.29612             -0.10203         *
 * Ni            126     -0.27585             -0.24387              0.06091         *
 * Ni            127     -0.05051             -0.05141             -0.11553         *
 * Ni            128     -0.18014             -0.07834              0.00823         *
 * Ni            129     -0.03673              0.15811             -0.10964         *
 * Ni            130      0.04742             -0.06452              0.00692         *
 * Ni            131      0.03286              0.00620              0.09888         *
 * Ni            132      0.09188             -0.02304              0.04628         *
 * Ni            133      0.12161             -0.12592             -0.15515         *
 * Ni            134     -0.07780              0.11676              0.19489         *
 * Ni            135     -0.18481              0.05415              0.08994         *
 * Ni            136     -0.18765              0.06434             -0.13957         *
 * Ni            137     -0.34669             -0.39876             -0.02377         *
 * Ni            138      0.12008              0.09069             -0.02097         *
 * Ni            139     -0.12580             -0.03133             -0.07949         *
 * Ni            140      0.12575             -0.02057             -0.00370         *
 * Ni            141     -0.13678              0.08683              0.20343         *
 * Ni            142      0.17690              0.01518             -0.11418         *
 * Ni            143      0.32756              0.19854             -0.22812         *
 * Ni            144     -0.09634             -0.05336              0.01233         *
 * Ni            145      0.16930              0.04387             -0.11279         *
 * Ni            146     -0.35534             -0.22611              0.20699         *
 * Ni            147     -0.04392             -0.07139              0.05566         *
 * Ni            148      0.22167              0.10777             -0.03223         *
 * Ni            149      0.20292             -0.05977             -0.25316         *
 * Ni            150      0.02142             -0.07252              0.23445         *
 * Ni            151     -0.31625              0.06242              0.12994         *
 * Ni            152      0.03648             -0.14453             -0.04326         *
 * Ni            153     -0.06765              0.17031             -0.22152         *
 * Ni            154      0.19466              0.21385              0.02235         *
 * Ni            155     -0.00983             -0.12803              0.07364         *
 * Ni            156     -0.04918             -0.12990             -0.28970         *
 * Ni            157      0.25191              0.05447             -0.25517         *
 * Ni            158     -0.17867              0.11468              0.24263         *
 * Ni            159     -0.15540             -0.05298              0.11406         *
 * Ni            160     -0.25238              0.16080              0.21333         *
 * Ni            161     -0.02803              0.06359              0.10935         *
 * Ni            162     -0.00907             -0.12887              0.07994         *
 * Ni            163      0.00528              0.06176              0.25597         *
 * Ni            164      0.33405             -0.09867             -0.08231         *
 * Ni            165     -0.32760              0.04537              0.17557         *
 * Ni            166     -0.10631              0.12330             -0.01643         *
 * Ni            167     -0.05854             -0.15357              0.09635         *
 * Ni            168     -0.24611              0.15650              0.24778         *
 * Ni            169     -0.02798             -0.12624             -0.05780         *
 * Ni            170      0.06646              0.28573             -0.03347         *
 * Ni            171      0.25553              0.11807              0.32573         *
 * Ni            172      0.26034             -0.14538              0.00143         *
 * Ni            173     -0.26744              0.26849             -0.07310         *
 * Ni            174     -0.06057              0.00073              0.01478         *
 * Ni            175      0.03290             -0.07115             -0.02434         *
 * Ni            176     -0.02097             -0.06083              0.21646         *
 * Ni            177      0.05960             -0.01391             -0.17744         *
 * Ni            178      0.07425              0.08931             -0.22402         *
 * Ni            179      0.28983             -0.07692              0.06101         *
 * Ni            180     -0.06852              0.02692             -0.11782         *
 * Ni            181     -0.09654             -0.01973              0.06544         *
 * Ni            182     -0.17445             -0.17260             -0.10015         *
 * Ni            183      0.03164              0.09972              0.35096         *
 * Ni            184     -0.15241              0.15957              0.00857         *
 * Ni            185      0.11434             -0.06048              0.00999         *
 * Ni            186     -0.00381             -0.09765             -0.14141         *
 * Ni            187     -0.06889             -0.10578             -0.19099         *
 * Ni            188      0.05099              0.18247             -0.07109         *
 * Ni            189     -0.08383              0.09715              0.27939         *
 * Ni            190      0.13628             -0.01322             -0.20483         *
 * Ni            191     -0.05803              0.04081             -0.11798         *
 * Ni            192      0.09208             -0.00046             -0.13481         *
 *                                                                                  *
 ************************************************************************************
 LBFGS: finished iteration     0 with enthalpy= -2.71385140E+005 eV
  
 +-----------+-----------------+-----------------+------------+-----+ <-- LBFGS
 | Parameter |      value      |    tolerance    |    units   | OK? | <-- LBFGS
 +-----------+-----------------+-----------------+------------+-----+ <-- LBFGS
 |  dE/ion   |   0.000000E+000 |   2.000000E-005 |         eV | No  | <-- LBFGS
 |  |F|max   |   9.699848E-001 |   5.000000E-002 |       eV/A | No  | <-- LBFGS
 |  |dR|max  |   0.000000E+000 |   1.000000E-003 |          A | No  | <-- LBFGS
 +-----------+-----------------+-----------------+------------+-----+ <-- LBFGS
  

================================================================================
 Starting LBFGS iteration          1 ...
================================================================================
  
 +------------+-------------+-------------+-----------------+ <-- min LBFGS
 |    Step    |   lambda    |   F.delta'  |    enthalpy     | <-- min LBFGS
 +------------+-------------+-------------+-----------------+ <-- min LBFGS
 |  previous  |    0.000000 |    2.079262 |  -271385.140412 | <-- min LBFGS
 +------------+-------------+-------------+-----------------+ <-- min LBFGS
  

--------------------------------------------------------------------------------
 LBFGS: starting iteration         1 with trial guess (lambda=  1.000000)
--------------------------------------------------------------------------------
 
                           -------------------------------
                                     Cell Contents
                           -------------------------------
 
            xxxxxxxxxxxxxxxxxxxxxxxxxxxxxxxxxxxxxxxxxxxxxxxxxxxxxxxxxxxxxxxxx
            x  Element         Atom        Fractional coordinates of atoms  x
            x                 Number           u          v          w      x
            x---------------------------------------------------------------x
            x  Al                1         0.570687   0.307412   0.814005   x
            x  Al                2         0.818253   0.309205   0.812754   x
            x  Al                3         0.569876   0.559262   0.815378   x
            x  Al                4         0.817604   0.558237   0.813194   x
            x  Al                5         0.575304   0.809633   0.809864   x
            x  Al                6         0.819113   0.807802   0.812326   x
            x  Al                7         0.572228   0.058451   0.813003   x
            x  Al                8         0.819974   0.059149   0.811973   x
            x  Al                9         0.569597   0.305964   0.062225   x
            x  Al               10         0.817817   0.308659   0.063472   x
            x  Al               11         0.573346   0.554856   0.061428   x
            x  Al               12         0.816706   0.558098   0.063513   x
            x  Al               13         0.577381   0.814394   0.062681   x
            x  Al               14         0.819195   0.808320   0.063088   x
            x  Al               15         0.574360   0.057121   0.058893   x
            x  Al               16         0.819977   0.058974   0.062896   x
            x  Al               17         0.570259   0.306341   0.311674   x
            x  Al               18         0.817082   0.309542   0.312892   x
            x  Al               19         0.567326   0.559706   0.311044   x
            x  Al               20         0.816101   0.558300   0.312629   x
            x  Al               21         0.574653   0.809408   0.315795   x
            x  Al               22         0.818588   0.807348   0.313562   x
            x  Al               23         0.577138   0.057431   0.318837   x
            x  Al               24         0.819627   0.058861   0.313711   x
            x  Al               25         0.571615   0.308623   0.563529   x
            x  Al               26         0.817117   0.310217   0.562759   x
            x  Al               27         0.568923   0.558949   0.564416   x
            x  Al               28         0.816572   0.557898   0.562590   x
            x  Al               29         0.570685   0.808510   0.564019   x
            x  Al               30         0.819231   0.807163   0.563081   x
            x  Al               31         0.572532   0.057948   0.562648   x
            x  Al               32         0.820045   0.059086   0.563519   x
            x  Al               33         0.328693   0.182483   0.683968   x
            x  Al               34         0.056349   0.057853   0.557622   x
            x  Al               35         0.192981   0.190309   0.554615   x
            x  Al               36         0.321499   0.935471   0.689237   x
            x  Al               37         0.192678   0.929506   0.554595   x
            x  Al               38         0.318590   0.689982   0.693837   x
            x  Al               39         0.074681   0.687540   0.679207   x
            x  Al               40         0.198696   0.188595   0.322244   x
            x  Al               41         0.067229   0.805446   0.315552   x
            x  Al               42         0.326132   0.685013   0.438491   x
            x  Al               43         0.194370   0.667426   0.313203   x
            x  Al               44         0.337283   0.428719   0.430293   x
            x  Al               45         0.328538   0.555025   0.569554   x
            x  Al               46         0.192224   0.432872   0.306403   x
            x  Al               47         0.063732   0.435392   0.438082   x
            x  Al               48         0.317501   0.060372   0.061859   x
            x  Al               49         0.440419   0.057080   0.194620   x
            x  Al               50         0.185824   0.054908   0.935118   x
            x  Al               51         0.068435   0.185164   0.191271   x
            x  Al               52         0.433459   0.814678   0.189362   x
            x  Al               53         0.070859   0.945095   0.191833   x
            x  Al               54         0.201486   0.808500   0.181704   x
            x  Al               55         0.432125   0.677762   0.059849   x
            x  Al               56         0.334574   0.430829   0.188809   x
            x  Al               57         0.188482   0.425160   0.063044   x
            x  Al               58         0.187094   0.186348   0.807248   x
            x  Al               59         0.434355   0.816952   0.935014   x
            x  Al               60         0.191697   0.811546   0.937408   x
            x  Al               61         0.191591   0.426151   0.805269   x
            x  Al               62         0.193509   0.427346   0.571060   x
            x  Al               63         0.188906   0.565177   0.934070   x
            x  Ni                1         0.568083   0.431586   0.937410   x
            x  Ni                2         0.694190   0.307832   0.938159   x
            x  Ni                3         0.693656   0.433459   0.813682   x
            x  Ni                4         0.817454   0.433621   0.938629   x
            x  Ni                5         0.942306   0.309348   0.938029   x
            x  Ni                6         0.942048   0.434087   0.812836   x
            x  Ni                7         0.564554   0.687906   0.941133   x
            x  Ni                8         0.693038   0.558929   0.938125   x
            x  Ni                9         0.693547   0.683085   0.813969   x
            x  Ni               10         0.818573   0.683032   0.938125   x
            x  Ni               11         0.941986   0.558335   0.938223   x
            x  Ni               12         0.942547   0.682773   0.812722   x
            x  Ni               13         0.569284   0.932595   0.935606   x
            x  Ni               14         0.695872   0.808931   0.937002   x
            x  Ni               15         0.696461   0.934208   0.811720   x
            x  Ni               16         0.820187   0.933581   0.937129   x
            x  Ni               17         0.942751   0.807901   0.937686   x
            x  Ni               18         0.943312   0.933129   0.812263   x
            x  Ni               19         0.569016   0.182489   0.937289   x
            x  Ni               20         0.696298   0.058332   0.936467   x
            x  Ni               21         0.694843   0.183634   0.812466   x
            x  Ni               22         0.819214   0.183992   0.937600   x
            x  Ni               23         0.943230   0.058864   0.937516   x
            x  Ni               24         0.943045   0.184534   0.812490   x
            x  Ni               25         0.562044   0.432042   0.190786   x
            x  Ni               26         0.691788   0.307458   0.187569   x
            x  Ni               27         0.692023   0.431826   0.064119   x
            x  Ni               28         0.816727   0.433650   0.188255   x
            x  Ni               29         0.942226   0.309362   0.188370   x
            x  Ni               30         0.941792   0.433957   0.063351   x
            x  Ni               31         0.563839   0.688647   0.183058   x
            x  Ni               32         0.690686   0.558873   0.187675   x
            x  Ni               33         0.693681   0.683941   0.062812   x
            x  Ni               34         0.817651   0.682944   0.188172   x
            x  Ni               35         0.941829   0.558438   0.188239   x
            x  Ni               36         0.942278   0.682965   0.063245   x
            x  Ni               37         0.568176   0.934979   0.189934   x
            x  Ni               38         0.694879   0.809437   0.188650   x
            x  Ni               39         0.697441   0.934904   0.062690   x
            x  Ni               40         0.820066   0.933471   0.188597   x
            x  Ni               41         0.942697   0.807810   0.188406   x
            x  Ni               42         0.943026   0.933274   0.062974   x
            x  Ni               43         0.568973   0.177784   0.187817   x
            x  Ni               44         0.695443   0.057654   0.188496   x
            x  Ni               45         0.694962   0.182749   0.062709   x
            x  Ni               46         0.818727   0.183913   0.188195   x
            x  Ni               47         0.943239   0.058833   0.188482   x
            x  Ni               48         0.942747   0.184207   0.063077   x
            x  Ni               49         0.563650   0.433784   0.432838   x
            x  Ni               50         0.692610   0.309593   0.437734   x
            x  Ni               51         0.690932   0.433687   0.311877   x
            x  Ni               52         0.816577   0.434355   0.437469   x
            x  Ni               53         0.942348   0.309893   0.437885   x
            x  Ni               54         0.941906   0.434228   0.313015   x
            x  Ni               55         0.567446   0.684535   0.439105   x
            x  Ni               56         0.690523   0.558331   0.437353   x
            x  Ni               57         0.691778   0.682962   0.312035   x
            x  Ni               58         0.817360   0.682054   0.437733   x
            x  Ni               59         0.942028   0.558390   0.437732   x
            x  Ni               60         0.942265   0.682694   0.313167   x
            x  Ni               61         0.570523   0.932740   0.440232   x
            x  Ni               62         0.695253   0.807628   0.439487   x
            x  Ni               63         0.696968   0.933155   0.314368   x
            x  Ni               64         0.820085   0.932781   0.438925   x
            x  Ni               65         0.942848   0.807323   0.438140   x
            x  Ni               66         0.943131   0.933042   0.313575   x
            x  Ni               67         0.571318   0.182275   0.439168   x
            x  Ni               68         0.697557   0.058303   0.440096   x
            x  Ni               69         0.695485   0.183724   0.313331   x
            x  Ni               70         0.818897   0.185010   0.438517   x
            x  Ni               71         0.943144   0.058936   0.438226   x
            x  Ni               72         0.942564   0.184489   0.313351   x
            x  Ni               73         0.568024   0.433794   0.690701   x
            x  Ni               74         0.693263   0.308978   0.688393   x
            x  Ni               75         0.690451   0.434402   0.562161   x
            x  Ni               76         0.817123   0.434067   0.687522   x
            x  Ni               77         0.942568   0.309796   0.687438   x
            x  Ni               78         0.942114   0.434286   0.562585   x
            x  Ni               79         0.568206   0.684290   0.688880   x
            x  Ni               80         0.692468   0.558440   0.688827   x
            x  Ni               81         0.693188   0.682538   0.563298   x
            x  Ni               82         0.818069   0.682287   0.687963   x
            x  Ni               83         0.942235   0.558263   0.687646   x
            x  Ni               84         0.942405   0.682370   0.562723   x
            x  Ni               85         0.569616   0.934265   0.687091   x
            x  Ni               86         0.695694   0.808113   0.687126   x
            x  Ni               87         0.696000   0.933037   0.563647   x
            x  Ni               88         0.819986   0.933424   0.687449   x
            x  Ni               89         0.942920   0.807541   0.687607   x
            x  Ni               90         0.943611   0.932957   0.562932   x
            x  Ni               91         0.568755   0.182421   0.688034   x
[...]
            Ni 43  -- Ni 144                 0.01         0.00          2.58816
            Ni 25  -- Ni 32                  0.03         0.00          2.58834
            Ni 105 -- Ni 131                 0.02        -0.00          2.58844
            Ni 14  -- Ni 39                  0.02        -0.00          2.58850
             Al 5  -- Ni 108                 0.16         0.00          2.58856
             Al 40 -- Ni 124                 0.20         0.00          2.58878
            Ni 36  -- Ni 129                 0.11         0.00          2.58903
            Ni 114 -- Ni 140                 0.05         0.00          2.58913
             Al 11 -- Ni 7                   0.20        -0.00          2.58915
             Al 61 -- Ni 102                 0.16        -0.00          2.58935
             Al 15 -- Ni 44                  0.20        -0.00          2.58944
            Ni 28  -- Ni 51                  0.04         0.00          2.58945
            Ni 110 -- Ni 136                 0.06        -0.00          2.58956
            Ni 12  -- Ni 89                  0.03        -0.00          2.59007
             Al 40 -- Ni 145                 0.17         0.00          2.59028
             Al 14 -- Ni 16                  0.19         0.00          2.59042
            Ni 142 -- Ni 143                 0.05        -0.00          2.59047
             Al 60 -- Ni 112                 0.17        -0.00          2.59083
            Ni 130 -- Ni 131                 0.12         0.00          2.59096
             Al 48 -- Ni 141                 0.18        -0.00          2.59158
            Ni 133 -- Ni 135                 0.03         0.00          2.59162
            Ni 37  -- Ni 38                  0.07         0.00          2.59167
            Ni 104 -- Ni 177                 0.05        -0.00          2.59179
            Ni 71  -- Ni 96                  0.01        -0.00          2.59187
            Ni 110 -- Ni 112                 0.05        -0.00          2.59205
             Al 61 -- Ni 97                  0.18         0.00          2.59212
            Ni 67  -- Ni 165                 0.02         0.00          2.59213
            Ni 90  -- Ni 95                  0.01        -0.00          2.59233
            Ni 128 -- Ni 144                 0.14         0.00          2.59256
            Ni 183 -- Ni 185                 0.07         0.00          2.59314
            Ni 169 -- Ni 171                -0.00        -0.00          2.59334
             Al 40 -- Ni 163                 0.16         0.00          2.59370
            Ni 101 -- Ni 144                 0.09        -0.00          2.59373
            Ni 13  -- Ni 120                 0.04        -0.00          2.59374
            Ni 174 -- Ni 182                 0.00         0.00          2.59396
            Ni 34  -- Ni 41                  0.06        -0.00          2.59458
             Al 12 -- Ni 32                  0.20        -0.00          2.59526
             Al 27 -- Ni 49                  0.18        -0.00          2.59543
             Al 16 -- Ni 40                  0.19        -0.00          2.59544
             Al 49 -- Ni 139                 0.18         0.00          2.59567
             Al 43 -- Ni 150                 0.18         0.00          2.59572
            Ni 116 -- Ni 118                 0.02        -0.00          2.59597
            Ni 26  -- Ni 43                  0.06         0.00          2.59612
            Ni 170 -- Ni 175                -0.01         0.00          2.59619
            Ni 145 -- Ni 170                -0.00        -0.00          2.59645
            Ni 1   -- Ni 8                   0.03        -0.00          2.59655
            Ni 129 -- Ni 132                 0.11         0.00          2.59673
             Al 63 -- Ni 97                  0.17         0.00          2.59676
            Ni 59  -- Ni 78                 -0.00        -0.00          2.59688
             Al 34 -- Ni 162                 0.16        -0.00          2.59689
            Ni 41  -- Ni 66                 -0.03         0.00          2.59690
             Al 51 -- Ni 124                 0.19        -0.00          2.59702
            Ni 155 -- Ni 156                 0.06         0.00          2.59702
            Ni 60  -- Ni 65                  0.01         0.00          2.59703
            Ni 151 -- Ni 174                -0.04         0.00          2.59727
             Al 17 -- Ni 69                  0.18        -0.00          2.59737
             Al 44 -- Ni 170                 0.16         0.00          2.59771
            Ni 13  -- Ni 139                -0.01         0.00          2.59772
            Ni 138 -- Ni 139                -0.01         0.00          2.59811
            Ni 51  -- Ni 52                  0.03         0.00          2.59814
             Al 15 -- Ni 37                  0.19        -0.00          2.59823
             Al 41 -- Ni 129                 0.20         0.00          2.59826
            Ni 151 -- Ni 152                 0.04         0.00          2.59856
            Ni 35  -- Ni 129                 0.10         0.00          2.59884
            Ni 111 -- Ni 186                 0.08         0.00          2.59936
             Al 56 -- Ni 128                 0.15         0.00          2.59940
            Ni 13  -- Ni 20                  0.06         0.00          2.59945
             Al 56 -- Ni 135                 0.15         0.00          2.59969
            Ni 53  -- Ni 54                  0.00         0.00          2.60026
            Ni 49  -- Ni 75                  0.01         0.00          2.60047
             Al 38 -- Ni 188                 0.17        -0.00          2.60101
            Ni 41  -- Ni 42                  0.03        -0.00          2.60110
             Al 3  -- Ni 180                 0.17        -0.00          2.60123
            Ni 150 -- Ni 178                 0.08         0.00          2.60190
             Al 60 -- Ni 113                 0.19        -0.00          2.60198
             Al 58 -- Ni 117                 0.15        -0.00          2.60225
            Ni 112 -- Ni 122                 0.11         0.00          2.60234
            Ni 68  -- Ni 69                  0.03         0.00          2.60234
             Al 50 -- Ni 142                 0.15        -0.00          2.60273
            Ni 133 -- Ni 160                -0.02         0.00          2.60295
            Ni 13  -- Ni 39                  0.01        -0.00          2.60335
            Ni 155 -- Ni 157                 0.07        -0.00          2.60364
            Ni 117 -- Ni 122                 0.03        -0.00          2.60373
            Ni 123 -- Ni 124                 0.02        -0.00          2.60381
            Ni 99  -- Ni 169                 0.01        -0.00          2.60414
             Al 22 -- Ni 57                  0.19        -0.00          2.60415
            Ni 54  -- Ni 59                  0.00         0.00          2.60438
            Ni 138 -- Ni 159                 0.02         0.00          2.60445
            Ni 47  -- Ni 163                 0.06        -0.00          2.60492
            Ni 111 -- Ni 115                 0.04        -0.00          2.60493
            Ni 25  -- Ni 27                  0.00         0.00          2.60528
            Ni 95  -- Ni 96                  0.01        -0.00          2.60587
            Ni 161 -- Ni 162                -0.01        -0.00          2.60663
            Ni 55  -- Ni 181                 0.06         0.00          2.60689
            Ni 152 -- Ni 158                 0.03         0.00          2.60773
            Ni 143 -- Ni 167                 0.01         0.00          2.60779
            Ni 53  -- Ni 78                  0.00        -0.00          2.60834
            Ni 113 -- Ni 139                 0.01        -0.00          2.60868
             Al 55 -- Ni 31                  0.17        -0.00          2.60897
             Al 9  -- Ni 43                  0.19        -0.00          2.60902
            Ni 147 -- Ni 170                -0.02         0.00          2.60916
             Al 21 -- Ni 159                 0.16         0.00          2.60922
             Al 9  -- Ni 144                 0.19         0.00          2.60981
             Al 38 -- Ni 177                 0.17         0.00          2.61028
            Ni 173 -- Ni 192                -0.01         0.00          2.61040
            Ni 169 -- Ni 172                 0.01        -0.00          2.61052
            Ni 178 -- Ni 185                 0.08        -0.00          2.61060
             Al 34 -- Ni 122                 0.16         0.00          2.61085
            Ni 129 -- Ni 130                 0.08         0.00          2.61089
            Ni 130 -- Ni 153                -0.01        -0.00          2.61098
             Al 51 -- Ni 163                 0.16        -0.00          2.61158
            Ni 146 -- Ni 174                 0.01         0.00          2.61165
            Ni 71  -- Ni 90                  0.02         0.00          2.61167
             Al 11 -- Ni 107                 0.16         0.00          2.61279
             Al 17 -- Ni 43                  0.17        -0.00          2.61288
            Ni 117 -- Ni 191                 0.08        -0.00          2.61290
            Ni 121 -- Ni 173                 0.01         0.00          2.61303
            Ni 172 -- Ni 177                -0.02        -0.00          2.61327
            Ni 156 -- Ni 167                 0.11         0.00          2.61341
             Al 38 -- Ni 178                 0.17        -0.00          2.61346
             Al 58 -- Ni 122                 0.18        -0.00          2.61354
            Ni 115 -- Ni 117                 0.09         0.00          2.61461
            Ni 178 -- Ni 184                 0.03        -0.00          2.61507
            Ni 168 -- Ni 177                 0.03        -0.00          2.61591
             Al 61 -- Ni 104                 0.15         0.00          2.61604
             Al 53 -- Ni 137                 0.18         0.00          2.61627
             Al 46 -- Ni 153                 0.15         0.00          2.61668
             Al 48 -- Ni 120                 0.18         0.00          2.61676
            Ni 65  -- Ni 66                  0.02         0.00          2.61705
            Ni 158 -- Ni 181                -0.01         0.00          2.61758
            Ni 127 -- Ni 134                 0.02         0.00          2.61760
            Ni 138 -- Ni 160                 0.05         0.00          2.61800
             Al 21 -- Ni 31                  0.19         0.00          2.61887
            Ni 178 -- Ni 179                 0.06        -0.00          2.61891
             Al 40 -- Ni 143                 0.18        -0.00          2.61929
            Ni 152 -- Ni 160                 0.02         0.00          2.61949
            Ni 130 -- Ni 149                -0.02         0.00          2.61991
             Al 35 -- Ni 122                 0.17         0.00          2.62058
            Ni 37  -- Ni 39                  0.01         0.00          2.62140
             Al 36 -- Ni 122                 0.17         0.00          2.62150
             Al 36 -- Ni 184                 0.17         0.00          2.62153
            Ni 42  -- Ni 47                 -0.01        -0.00          2.62163
            Ni 110 -- Ni 118                 0.04        -0.00          2.62236
            Ni 140 -- Ni 141                 0.07        -0.00          2.62296
             Al 58 -- Ni 119                 0.16        -0.00          2.62333
            Ni 102 -- Ni 109                -0.00        -0.00          2.62360
             Al 5  -- Ni 7                   0.19         0.00          2.62361
            Ni 159 -- Ni 160                 0.09         0.00          2.62509
            Ni 65  -- Ni 148                 0.04         0.00          2.62543
            Ni 136 -- Ni 141                 0.01        -0.00          2.62604
            Ni 156 -- Ni 157                 0.12         0.00          2.62875
             Al 43 -- Ni 155                 0.18         0.00          2.62886
             Al 50 -- Ni 117                 0.14        -0.00          2.62910
             Al 47 -- Ni 150                 0.18        -0.00          2.62936
            Ni 102 -- Ni 108                 0.09        -0.00          2.62936
            Ni 158 -- Ni 160                 0.11         0.00          2.63049
             Al 44 -- Ni 175                 0.16        -0.00          2.63073
             Al 5  -- Ni 115                 0.15         0.00          2.63119
            Ni 170 -- Ni 171                -0.02        -0.00          2.63124
            Ni 124 -- Ni 125                 0.03        -0.00          2.63180
             Al 23 -- Ni 166                 0.14         0.00          2.63238
            Ni 134 -- Ni 135                 0.09        -0.00          2.63390
             Al 52 -- Ni 37                  0.15         0.00          2.63422
            Ni 108 -- Ni 111                 0.02        -0.00          2.63474
            Ni 162 -- Ni 164                 0.01         0.00          2.63503
            Ni 114 -- Ni 138                 0.00         0.00          2.63513
             Al 38 -- Ni 182                 0.16         0.00          2.63527
            Ni 154 -- Ni 155                 0.06        -0.00          2.63528
             Al 63 -- Ni 100                 0.16        -0.00          2.63737
             Al 52 -- Ni 31                  0.16         0.00          2.63863
            Ni 155 -- Ni 188                 0.03         0.00          2.63879
             Al 39 -- Ni 178                 0.18        -0.00          2.63889
            Ni 150 -- Ni 153                -0.01         0.00          2.63951
             Al 11 -- Ni 31                  0.17        -0.00          2.63971
             Al 37 -- Ni 190                 0.15        -0.00          2.64022
            Ni 7   -- Ni 107                 0.01        -0.00          2.64050
            Ni 31  -- Ni 32                  0.05         0.00          2.64110
            Ni 156 -- Ni 162                 0.13         0.00          2.64149
             Al 23 -- Ni 159                 0.14         0.00          2.64166
            Ni 126 -- Ni 127                -0.00         0.00          2.64254
            Ni 31  -- Ni 57                  0.07         0.00          2.64366
             Al 44 -- Ni 150                 0.14        -0.00          2.64392
            Ni 114 -- Ni 133                -0.03         0.00          2.64508
             Al 59 -- Ni 7                   0.15         0.00          2.64548
             Al 3  -- Ni 7                   0.18         0.00          2.64548
             Al 48 -- Al 50                  0.25        -0.00          2.64586
             Al 46 -- Ni 147                 0.13        -0.00          2.64680
            Ni 106 -- Ni 135                 0.03        -0.00          2.64803
             Al 13 -- Ni 139                 0.16         0.00          2.64833
             Al 48 -- Al 49                  0.26         0.00          2.65076
             Al 50 -- Al 58                  0.24        -0.00          2.65077
             Al 37 -- Ni 122                 0.16         0.00          2.65276
             Al 35 -- Ni 189                 0.15         0.00          2.65328
             Al 33 -- Ni 122                 0.15         0.00          2.65603
             Al 50 -- Ni 119                 0.13        -0.00          2.65883
            Ni 7   -- Ni 8                   0.05        -0.00          2.65941
             Al 35 -- Ni 190                 0.13        -0.00          2.66058
            Ni 7   -- Ni 9                   0.06        -0.00          2.66293
             Al 43 -- Ni 160                 0.15        -0.00          2.66626
             Al 42 -- Al 43                  0.25         0.00          2.66871
             Al 42 -- Ni 153                 0.16         0.00          2.67091
             Al 23 -- Al 49                  0.24         0.00          2.67183
             Al 38 -- Al 45                  0.23         0.00          2.68062
            Ni 168 -- Ni 169                 0.02        -0.00          2.68953
            Ni 148 -- Ni 150                 0.07        -0.00          2.69075
             Al 45 -- Al 62                  0.21        -0.00          2.69552
             Al 46 -- Al 56                  0.26        -0.00          2.69629
            Ni 161 -- Ni 170                 0.02        -0.00          2.70758
             Al 5  -- Al 59                  0.20         0.00          2.71296
             Al 19 -- Ni 31                  0.13        -0.00          2.71556
             Al 56 -- Ni 130                 0.10         0.00          2.71559
             Al 42 -- Al 45                  0.21         0.00          2.72015
             Al 11 -- Al 55                  0.20         0.00          2.72188
            Ni 164 -- Ni 170                 0.04         0.00          2.72247
             Al 36 -- Al 37                  0.22        -0.00          2.72396
            Ni 149 -- Ni 150                 0.00         0.00          2.72501
             Al 56 -- Ni 124                 0.10         0.00          2.73345
             Al 55 -- Al 59                  0.20        -0.00          2.73488
             Al 46 -- Al 47                  0.21         0.00          2.73534
             Al 34 -- Al 35                  0.19        -0.00          2.73758
             Al 33 -- Al 35                  0.21         0.00          2.73842
             Al 33 -- Al 58                  0.20        -0.00          2.74115
             Al 21 -- Al 52                  0.20         0.00          2.74400
             Al 34 -- Al 37                  0.19         0.00          2.74543
             Al 57 -- Al 63                  0.19        -0.00          2.74992
             Al 61 -- Al 63                  0.20        -0.00          2.75028
             Al 52 -- Al 55                  0.20         0.00          2.76102
             Al 47 -- Al 62                  0.18        -0.00          2.76654
             Al 15 -- Al 49                  0.19         0.00          2.77173
             Al 44 -- Al 46                  0.20         0.00          2.77391
             Al 40 -- Al 51                  0.20        -0.00          2.77885
             Al 53 -- Al 54                  0.18         0.00          2.78055
             Al 42 -- Ni 150                 0.11         0.00          2.78281
             Al 44 -- Al 45                  0.15         0.00          2.78541
             Al 41 -- Al 43                  0.16         0.00          2.78648
             Al 41 -- Al 53                  0.17         0.00          2.80196
             Al 43 -- Al 54                  0.16         0.00          2.80622
             Al 13 -- Al 59                  0.17        -0.00          2.82978
             Al 13 -- Al 52                  0.17         0.00          2.83109
             Al 56 -- Al 57                  0.15        -0.00          2.84040
             Al 41 -- Al 54                  0.12         0.00          2.86795
             Al 13 -- Al 55                  0.08         0.00          2.95465
================================================================================
 

Writing analysis data to castep.castep_bin

Writing model to castep.check
 
 A BibTeX formatted list of references used in this run has been written to 
 castep.bib
 
Initialisation time =     13.56 s
Calculation time    =  17550.63 s
Finalisation time   =     13.72 s
Total time          =  17577.90 s
Peak Memory Use     = 2285508 kB
  
Overall parallel efficiency rating: Good (72%)                                  
  
Data was distributed by:-
G-vector (48-way); efficiency rating: Good (72%)                                
