 +-------------------------------------------------+
 |                                                 |
 |      CCC   AA    SSS  TTTTT  EEEEE  PPPP        |
 |     C     A  A  S       T    E      P   P       |
 |     C     AAAA   SS     T    EEE    PPPP        |
 |     C     A  A     S    T    E      P           |
 |      CCC  A  A  SSS     T    EEEEE  P           |
 |                                                 |
 +-------------------------------------------------+
 |                                                 |
 | Welcome to Academic Release CASTEP version 22.11|
 | Ab Initio Total Energy Program                  |
 |                                                 |
 | Authors:                                        |
 | M. Segall, M. Probert, C. Pickard, P. Hasnip,   |
 | S. Clark, K. Refson, J. R. Yates, M. Payne      |
 |                                                 |
 | Contributors:                                   |
 | P. Lindan, P. Haynes, J. White, V. Milman,      |
 | N. Govind, M. Gibson, P. Tulip, V. Cocula,      |
 | B. Montanari, D. Quigley, M. Glover,            |
 | L. Bernasconi, A. Perlov, M. Plummer,           |
 | E. McNellis, J. Meyer, J. Gale, D. Jochym       |
 | J. Aarons, B. Walker, R. Gillen, D. Jones       |
 | T. Green, I. J. Bush, C. J. Armstrong,          |
 | E. J. Higgins, E. L. Brown, M. S. McFly,        |
 | J. Wilkins, B-C. Shih, P. J. P. Byrne,          |
 | R. J. Maurer, J. C. Womack, J. Dziedzic,        |
 | A. Bartok-Partay, L. LeBlanc, T. K. Stenczel,   |
 | J. Kermode, S. Sturniolo, B. Shi, B. Durham     |
 | M. Evans, M. J. Smith                           |
 |                                                 |
 | Copyright (c) 2000 - 2021                       |
 |                                                 |
 |     Distributed under license from Cambridge    |
 |     Enterprise for academic use only.           |
 |                                                 |
 | Please cite                                     |
 |                                                 |
 |     "First principles methods using CASTEP"     |
 |                                                 |
 |         Zeitschrift fuer Kristallographie       |
 |           220(5-6) pp. 567-570 (2005)           |
 |                                                 |
 | S. J. Clark, M. D. Segall, C. J. Pickard,       |
 | P. J. Hasnip, M. J. Probert, K. Refson,         |
 | M. C. Payne                                     |
 |                                                 |
 |       in all publications arising from          |
 |              your use of CASTEP                 |
 |                                                 |
 +-------------------------------------------------+
 |                                                 |
 |              http://www.castep.org              |
 |                                                 |
 +-------------------------------------------------+
 
 
 
 Compiled for linux_x86_64_ifort on Wed, 18 Jan 2023 15:42:19 +0000
 from code version b807d1bba+  Castep221_branch  Wed Sep 14 11:18:35 2022 +0100
 Compiler: Intel Fortran 19.0.5.281; Optimisation: fast
 MATHLIBS: Intel MKL(2019.0.5) (LAPACK version 3.7.0)
 FFT Lib : mkl
 Fundamental constants values: CODATA 2014
 
 Run started: Thu, 27 Apr 2023 00:31:33 +0100
 
 Atomic calculation performed for Al: 1s2 2s2 2p6 3s2 3p1
 
 Converged in 52 iterations to an ae energy of -6606.982 eV
 
   ============================================================                
   | Pseudopotential Report - Date of generation 27-04-2023   |                
   ------------------------------------------------------------                
   | Element: Al Ionic charge:  3.00 Level of theory: RPBE    |                
   | Atomic Solver: Koelling-Harmon                           |                
   |                                                          |                
   |               Reference Electronic Structure             |                
   |         Orbital         Occupation         Energy        |                
   |            3s              2.000           -0.284        |                
   |            3p              1.000           -0.100        |                
   |                                                          |                
   |                 Pseudopotential Definition               |                
   |        Beta     l      e      Rc     scheme   norm       |                
   |          1      0   -0.284   2.192     qc      0         |                
   |          2      0    0.250   2.192     qc      0         |                
   |          3      1   -0.100   2.192     qc      0         |                
   |          4      1    0.250   2.192     qc      0         |                
   |          5      2    0.000   2.000     qc      0         |                
   |          6      2    0.250   2.000     qc      0         |                
   |         loc     3    0.000   2.192     pn      0         |                
   |                                                          |                
   | Augmentation charge Rinner = 1.398                       |                
   | Partial core correction Rc = 1.398                       |                
   ------------------------------------------------------------                
   | "3|2.2|2.2|1.4|4|5|5|30:31:32U2U2"                       |                
   ------------------------------------------------------------                
   |      Author: Chris J. Pickard, Cambridge University      |                
   ============================================================                
 
 Atomic calculation performed for Ni: 1s2 2s2 2p6 3s2 3p6 3d8 4s2
 
 Converged in 109 iterations to an ae energy of -41381.414 eV
 
   ============================================================                
   | Pseudopotential Report - Date of generation 27-04-2023   |                
   ------------------------------------------------------------                
   | Element: Ni Ionic charge: 10.00 Level of theory: RPBE    |                
   | Atomic Solver: Koelling-Harmon                           |                
   |                                                          |                
   |               Reference Electronic Structure             |                
   |         Orbital         Occupation         Energy        |                
   |            3d              8.000           -0.324        |                
   |            4s              2.000           -0.204        |                
   |                                                          |                
   |                 Pseudopotential Definition               |                
   |        Beta     l      e      Rc     scheme   norm       |                
   |          1      0   -0.204   2.401     qc      0         |                
   |          2      0    0.250   2.401     qc      0         |                
   |          3      1    0.000   2.401     qc      0         |                
   |          4      1    0.250   2.401     qc      0         |                
   |          5      2   -0.324   1.999     qc      0         |                
   |          6      2    0.250   1.999     qc      0         |                
   |         loc     3    0.000   2.401     pn      0         |                
   |                                                          |                
   | Augmentation charge Rinner = 1.001                       |                
   | Partial core correction Rc = 1.001                       |                
   ------------------------------------------------------------                
   | "3|2.4|2.4|1.0|8|9|10|40:41:32U2U2(qc=5.5)"              |                
   ------------------------------------------------------------                
   |      Author: Chris J. Pickard, Cambridge University      |                
   ============================================================                
 
 Pseudo atomic calculation performed for Al 3s2 3p1
 
 Converged in 13 iterations to a total energy of -107.6593 eV
 
 Pseudo atomic calculation performed for Ni 3d8 4s2
 
 Converged in 41 iterations to a total energy of -1369.7890 eV
 Calculation parallelised over 128 processes.
 Data is distributed by G-vector(128-way)

 ************************************ Title ************************************
 

 ***************************** General Parameters ******************************
  
 output verbosity                               : normal  (1)
 write checkpoint data to                       : castep.check
 type of calculation                            : geometry optimization
 stress calculation                             : off
 density difference calculation                 : off
 electron localisation func (ELF) calculation   : off
 Hirshfeld analysis                             : off
 polarisation (Berry phase) analysis            : off
 molecular orbital projected DOS                : off
 deltaSCF calculation                           : off
 unlimited duration calculation
 timing information                             : on
 memory usage estimate                          : on
 write extra output files                       : on
 write final potential to formatted file        : off
 write final density to formatted file          : off
 write BibTeX reference list                    : on
 write OTFG pseudopotential files               : on
 write electrostatic potential file             : on
 write bands file                               : on
 checkpoint writing                             : both castep_bin and check files
  
 output         length unit                     : A
 output           mass unit                     : amu
 output           time unit                     : ps
 output         charge unit                     : e
 output           spin unit                     : hbar/2
 output         energy unit                     : eV
 output          force unit                     : eV/A
 output       velocity unit                     : A/ps
 output       pressure unit                     : GPa
 output     inv_length unit                     : 1/A
 output      frequency unit                     : cm-1
 output force constant unit                     : eV/A**2
 output         volume unit                     : A**3
 output   IR intensity unit                     : (D/A)**2/amu
 output         dipole unit                     : D
 output         efield unit                     : eV/A/e
 output        entropy unit                     : J/mol/K
 output    efield chi2 unit                     : pm/V
  
 wavefunctions paging                           : none
 random number generator seed                   : randomised (3135603)
 data distribution                              : optimal for this architecture
 optimization strategy                          : maximize speed(+++)

 *********************** Exchange-Correlation Parameters ***********************
  
 using functional                               : revised Perdew Burke Ernzerhof
 relativistic treatment                         : Koelling-Harmon
 DFT+D: Semi-empirical dispersion correction    : off

 ************************* Pseudopotential Parameters **************************
  
 pseudopotential representation                 : reciprocal space
 <beta|phi> representation                      : reciprocal space
 spin-orbit coupling                            : off

 **************************** Basis Set Parameters *****************************
  
 plane wave basis set cut-off                   :   900.0000   eV
 size of standard grid                          :     1.7500
 size of   fine   gmax                          :    26.8966   1/A
 finite basis set correction                    : none

 **************************** Electronic Parameters ****************************
  
 number of  electrons                           :  2109.    
 net charge of system                           :  0.000    
 net spin   of system                           :  1.000    
 number of  up  spins                           :  1055.    
 number of down spins                           :  1054.    
 treating system as spin-polarized
 number of bands                                :       1167

 ********************* Electronic Minimization Parameters **********************
  
 Method: Treating system as metallic with density mixing treatment of electrons,
         and number of  SD  steps               :          1
         and number of  CG  steps               :          4
  
 total energy / atom convergence tol.           : 0.1000E-05   eV
 eigen-energy convergence tolerance             : 0.2185E-06   eV
 max force / atom convergence tol.              : ignored
 convergence tolerance window                   :          3   cycles
 max. number of SCF cycles                      :        200
 number of fixed-spin iterations                :         10
 smearing scheme                                : Gaussian
 smearing width                                 : 0.2000       eV
 Fermi energy convergence tolerance             : 0.2721E-13   eV
 periodic dipole correction                     : NONE
 periodically dump wavefunctions to             : castep.wvfn
 dump wavefunctions every                       :          1   SCF cycles

 ************************** Density Mixing Parameters **************************
  
 density-mixing scheme                          : Pulay
 max. length of mixing history                  :         20
 charge density mixing amplitude                : 0.8000    
   spin density mixing amplitude                :  2.000    
 cut-off energy for mixing                      :  900.0       eV

 *********************** Population Analysis Parameters ************************
  
 Population analysis with cutoff                :  3.000       A
 Population analysis output                     : summary and pdos components

 ********************** Geometry Optimization Parameters ***********************
  
 optimization method                            : LBFGS
 max. no. of LBFGS updates                      : unbounded
 variable cell method                           : fixed basis quality
 max. number of steps                           :         30
 estimated bulk modulus                         :  500.0       GPa
 estimated <frequency>                          :  1668.       cm-1
 geom line minimiser                            : on
 with line minimiser tolerance                  :     0.4000
  with spin fully able to relax for all steps
 total energy convergence tolerance             : 0.2000E-04   eV/atom
        max ionic |force| tolerance             : 0.5000E-01   eV/A
 max ionic |displacement| tolerance             : 0.1000E-02   A
   max |stress component| tolerance             : 0.1000       GPa
 convergence tolerance window                   :          2   steps
 backup results every                           :          5   steps
 write geom trajectory file                     : on

 *******************************************************************************
  
 
                           -------------------------------
                                      Unit Cell
                           -------------------------------
        Real Lattice(A)                      Reciprocal Lattice(1/A)
    14.4648280     0.0000000     0.0000000        0.434376773   0.000000000   0.000000000
     0.0000000    14.4648280     0.0000000        0.000000000   0.434376773   0.000000000
     0.0000000     0.0000000    14.4648280        0.000000000   0.000000000   0.434376773
 
                       Lattice parameters(A)       Cell Angles
                    a =     14.464828          alpha =   90.000000
                    b =     14.464828          beta  =   90.000000
                    c =     14.464828          gamma =   90.000000
 
                       Current cell volume =          3026.494030       A**3
                                   density =             4.285146   AMU/A**3
                                           =             7.115653     g/cm^3
 
                           -------------------------------
                                     Cell Contents
                           -------------------------------
                         Total number of ions in cell =  255
                      Total number of species in cell =    2
                        Max number of any one species =  192
 
            xxxxxxxxxxxxxxxxxxxxxxxxxxxxxxxxxxxxxxxxxxxxxxxxxxxxxxxxxxxx
            x  Element    Atom        Fractional coordinates of atoms  x
            x            Number           u          v          w      x
            x----------------------------------------------------------x
            x  Al           1         0.570155   0.307954   0.813421   x 
            x  Al           2         0.818143   0.308859   0.812792   x 
            x  Al           3         0.568957   0.558664   0.814334   x 
            x  Al           4         0.817600   0.558335   0.813249   x 
            x  Al           5         0.573908   0.808662   0.809681   x 
            x  Al           6         0.818450   0.807822   0.812449   x 
            x  Al           7         0.571101   0.058593   0.813107   x 
            x  Al           8         0.819190   0.058779   0.812128   x 
            x  Al           9         0.569432   0.306730   0.063299   x 
            x  Al          10         0.818578   0.308126   0.062639   x 
            x  Al          11         0.573567   0.554001   0.062763   x 
            x  Al          12         0.817549   0.558325   0.062584   x 
            x  Al          13         0.576380   0.813454   0.063076   x 
            x  Al          14         0.818942   0.808616   0.062406   x 
            x  Al          15         0.573193   0.057770   0.059281   x 
            x  Al          16         0.819589   0.058534   0.062283   x 
            x  Al          17         0.576467   0.302548   0.312563   x 
            x  Al          18         0.818852   0.308569   0.312847   x 
            x  Al          19         0.574796   0.563939   0.311363   x 
            x  Al          20         0.817873   0.558896   0.312623   x 
            x  Al          21         0.574763   0.808794   0.315618   x 
            x  Al          22         0.819369   0.808400   0.313315   x 
            x  Al          23         0.576839   0.058143   0.318815   x 
            x  Al          24         0.820237   0.057874   0.313519   x 
            x  Al          25         0.572371   0.308731   0.562876   x 
            x  Al          26         0.818517   0.309369   0.563702   x 
            x  Al          27         0.569742   0.558421   0.563507   x 
            x  Al          28         0.817994   0.558380   0.563431   x 
            x  Al          29         0.570144   0.808015   0.563633   x 
            x  Al          30         0.819399   0.807661   0.563727   x 
            x  Al          31         0.571921   0.058088   0.562373   x 
            x  Al          32         0.820058   0.058463   0.564129   x 
            x  Al          33         0.328740   0.182883   0.683418   x 
            x  Al          34         0.056064   0.057367   0.557768   x 
            x  Al          35         0.192439   0.189892   0.555185   x 
            x  Al          36         0.321878   0.935120   0.688816   x 
            x  Al          37         0.192806   0.929527   0.554380   x 
            x  Al          38         0.318468   0.687198   0.690532   x 
            x  Al          39         0.074804   0.687519   0.678591   x 
            x  Al          40         0.197886   0.188988   0.322426   x 
            x  Al          41         0.066648   0.805915   0.315287   x 
            x  Al          42         0.325139   0.685499   0.438008   x 
            x  Al          43         0.192521   0.667407   0.313585   x 
            x  Al          44         0.440278   0.432750   0.320357   x 
            x  Al          45         0.328024   0.549009   0.561096   x 
            x  Al          46         0.193062   0.432822   0.311315   x 
            x  Al          47         0.061308   0.434693   0.438645   x 
            x  Al          48         0.317605   0.061466   0.062250   x 
            x  Al          49         0.439710   0.058136   0.195432   x 
            x  Al          50         0.186454   0.054654   0.934817   x 
            x  Al          51         0.067857   0.184826   0.191219   x 
            x  Al          52         0.433102   0.813784   0.189959   x 
            x  Al          53         0.071068   0.945346   0.191592   x 
            x  Al          54         0.201154   0.808197   0.181950   x 
            x  Al          55         0.431780   0.675096   0.062454   x 
            x  Al          56         0.322447   0.430424   0.180485   x 
            x  Al          57         0.183709   0.424919   0.060292   x 
            x  Al          58         0.187160   0.186047   0.806497   x 
            x  Al          59         0.433680   0.814950   0.935680   x 
            x  Al          60         0.192300   0.810956   0.937189   x 
            x  Al          61         0.191365   0.426221   0.804358   x 
            x  Al          62         0.192600   0.426369   0.568976   x 
            x  Al          63         0.187742   0.565404   0.933169   x 
            x  Ni           1         0.567727   0.431637   0.937545   x 
            x  Ni           2         0.693822   0.307868   0.938013   x 
            x  Ni           3         0.693251   0.433463   0.813372   x 
            x  Ni           4         0.817656   0.433514   0.938007   x 
            x  Ni           5         0.942559   0.308940   0.937597   x 
            x  Ni           6         0.942460   0.433916   0.812898   x 
            x  Ni           7         0.563485   0.686728   0.941345   x 
            x  Ni           8         0.692548   0.558756   0.937941   x 
            x  Ni           9         0.692624   0.682722   0.813821   x 
            x  Ni          10         0.818296   0.683174   0.937721   x 
            x  Ni          11         0.942301   0.558447   0.937797   x 
            x  Ni          12         0.942744   0.682997   0.812800   x 
            x  Ni          13         0.567970   0.932198   0.935894   x 
            x  Ni          14         0.694644   0.808563   0.936881   x 
            x  Ni          15         0.695045   0.933900   0.811858   x 
            x  Ni          16         0.819412   0.933433   0.936864   x 
            x  Ni          17         0.942805   0.808021   0.937334   x 
            x  Ni          18         0.943267   0.933020   0.812382   x 
            x  Ni          19         0.568232   0.183329   0.937563   x 
            x  Ni          20         0.695029   0.058273   0.936467   x 
            x  Ni          21         0.693944   0.183610   0.812459   x 
            x  Ni          22         0.818832   0.183564   0.937278   x 
            x  Ni          23         0.943192   0.058492   0.937174   x 
            x  Ni          24         0.943142   0.184023   0.812597   x 
            x  Ni          25         0.566514   0.431957   0.191464   x 
            x  Ni          26         0.694304   0.306818   0.187184   x 
            x  Ni          27         0.693313   0.431684   0.063615   x 
            x  Ni          28         0.818216   0.433410   0.187620   x 
            x  Ni          29         0.942600   0.308780   0.187881   x 
            x  Ni          30         0.942202   0.433793   0.062744   x 
            x  Ni          31         0.563884   0.687262   0.183541   x 
            x  Ni          32         0.693714   0.559250   0.187160   x 
            x  Ni          33         0.693580   0.683787   0.062536   x 
            x  Ni          34         0.818704   0.683871   0.187298   x 
            x  Ni          35         0.942127   0.558677   0.187770   x 
            x  Ni          36         0.942644   0.683322   0.062581   x 
            x  Ni          37         0.567500   0.935044   0.190061   x 
            x  Ni          38         0.694730   0.809614   0.188157   x 
            x  Ni          39         0.696285   0.934785   0.062417   x 
            x  Ni          40         0.819949   0.933516   0.187969   x 
            x  Ni          41         0.943107   0.808229   0.187803   x 
            x  Ni          42         0.943155   0.933199   0.062399   x 
            x  Ni          43         0.568393   0.179084   0.188246   x 
            x  Ni          44         0.694957   0.057573   0.188066   x 
            x  Ni          45         0.694613   0.182767   0.062530   x 
            x  Ni          46         0.819561   0.182842   0.187432   x 
            x  Ni          47         0.943700   0.058274   0.187873   x 
            x  Ni          48         0.943099   0.183590   0.062453   x 
            x  Ni          49         0.570468   0.433607   0.434665   x 
            x  Ni          50         0.695958   0.308376   0.438641   x 
            x  Ni          51         0.694501   0.433446   0.312200   x 
            x  Ni          52         0.818281   0.434128   0.438131   x 
            x  Ni          53         0.942829   0.309288   0.438198   x 
            x  Ni          54         0.942346   0.434054   0.312964   x 
            x  Ni          55         0.568277   0.684377   0.439192   x 
            x  Ni          56         0.694067   0.559257   0.438227   x 
            x  Ni          57         0.694834   0.684814   0.312088   x 
            x  Ni          58         0.818757   0.683252   0.438383   x 
            x  Ni          59         0.942525   0.558669   0.438000   x 
            x  Ni          60         0.942547   0.683327   0.313006   x 
            x  Ni          61         0.570276   0.932634   0.439859   x 
            x  Ni          62         0.695593   0.808085   0.439752   x 
            x  Ni          63         0.696678   0.933233   0.314147   x 
            x  Ni          64         0.820232   0.932814   0.439186   x 
            x  Ni          65         0.943435   0.807834   0.438409   x 
            x  Ni          66         0.943687   0.933014   0.313373   x 
            x  Ni          67         0.571293   0.182829   0.439439   x 
            x  Ni          68         0.697493   0.057919   0.440353   x 
            x  Ni          69         0.697749   0.182019   0.313434   x 
            x  Ni          70         0.820123   0.183644   0.439155   x 
            x  Ni          71         0.943807   0.058301   0.438592   x 
            x  Ni          72         0.942889   0.183644   0.313180   x 
            x  Ni          73         0.567651   0.433846   0.689270   x 
            x  Ni          74         0.693378   0.308807   0.688367   x 
            x  Ni          75         0.692899   0.434200   0.563001   x 
            x  Ni          76         0.817839   0.433904   0.688185   x 
            x  Ni          77         0.943046   0.309308   0.687974   x 
            x  Ni          78         0.942781   0.434102   0.563082   x 
            x  Ni          79         0.567343   0.683270   0.687842   x 
            x  Ni          80         0.692800   0.558381   0.688681   x 
            x  Ni          81         0.693858   0.682897   0.563615   x 
            x  Ni          82         0.818181   0.682647   0.688468   x 
            x  Ni          83         0.942716   0.558436   0.688132   x 
            x  Ni          84         0.943005   0.682901   0.563290   x 
            x  Ni          85         0.568557   0.933869   0.686980   x 
            x  Ni          86         0.694789   0.807919   0.687321   x 
            x  Ni          87         0.695375   0.932938   0.563925   x 
            x  Ni          88         0.819453   0.933271   0.687946   x 
            x  Ni          89         0.943136   0.807731   0.688087   x 
            x  Ni          90         0.943936   0.932934   0.563441   x 
            x  Ni          91         0.568151   0.182804   0.687498   x 
            x  Ni          92         0.694354   0.058636   0.687757   x 
            x  Ni          93         0.695225   0.183657   0.564034   x 
            x  Ni          94         0.819078   0.184035   0.688175   x 
            x  Ni          95         0.943824   0.058551   0.687950   x 
            x  Ni          96         0.943665   0.184143   0.563384   x 
            x  Ni          97         0.069894   0.430619   0.932047   x 
            x  Ni          98         0.190663   0.305570   0.933372   x 
            x  Ni          99         0.064026   0.305214   0.807699   x 
            x  Ni         100         0.311477   0.432005   0.935412   x 
            x  Ni         101         0.442536   0.306603   0.937932   x 
            x  Ni         102         0.316704   0.557161   0.811458   x 
            x  Ni         103         0.319842   0.304896   0.810850   x 
            x  Ni         104         0.065397   0.560780   0.805166   x 
            x  Ni         105         0.065284   0.687577   0.935898   x 
            x  Ni         106         0.314851   0.683891   0.934014   x 
            x  Ni         107         0.441911   0.557588   0.937105   x 
            x  Ni         108         0.443727   0.685105   0.814563   x 
            x  Ni         109         0.190647   0.685894   0.809600   x 
            x  Ni         110         0.066535   0.934089   0.935437   x 
            x  Ni         111         0.316853   0.811463   0.811437   x 
            x  Ni         112         0.190688   0.935968   0.807503   x 
            x  Ni         113         0.314075   0.938291   0.935214   x 
            x  Ni         114         0.318274   0.810058   0.060522   x 
            x  Ni         115         0.444335   0.935232   0.812126   x 
            x  Ni         116         0.065298   0.180476   0.933381   x 
            x  Ni         117         0.316000   0.061786   0.809402   x 
            x  Ni         118         0.066948   0.057850   0.805653   x 
            x  Ni         119         0.314482   0.180338   0.935297   x 
            x  Ni         120         0.442812   0.057705   0.937855   x 
            x  Ni         121         0.444784   0.182659   0.813075   x 
            x  Ni         122         0.193286   0.060761   0.678119   x 
            x  Ni         123         0.064960   0.430346   0.188639   x 
            x  Ni         124         0.192259   0.307288   0.188932   x 
            x  Ni         125         0.062561   0.303418   0.061244   x 
            x  Ni         126         0.445872   0.307169   0.189084   x 
            x  Ni         127         0.443626   0.432718   0.060647   x 
            x  Ni         128         0.318571   0.306142   0.060614   x 
            x  Ni         129         0.070883   0.683767   0.190058   x 
            x  Ni         130         0.191120   0.552044   0.184167   x 
            x  Ni         131         0.191397   0.682889   0.061240   x 
            x  Ni         132         0.065611   0.558090   0.060715   x 
            x  Ni         133         0.315310   0.678411   0.189085   x 
            x  Ni         134         0.444130   0.556176   0.187438   x 
            x  Ni         135         0.312498   0.552996   0.058655   x 
            x  Ni         136         0.067108   0.060467   0.063015   x 
            x  Ni         137         0.070327   0.813869   0.066209   x 
            x  Ni         138         0.314929   0.937837   0.189912   x 
            x  Ni         139         0.443429   0.936195   0.064202   x 
            x  Ni         140         0.191738   0.937518   0.063106   x 
            x  Ni         141         0.194927   0.064519   0.190974   x 
            x  Ni         142         0.190466   0.184166   0.060751   x 
            x  Ni         143         0.317408   0.185274   0.190290   x 
            x  Ni         144         0.443253   0.180674   0.064004   x 
            x  Ni         145         0.064083   0.309106   0.314773   x 
            x  Ni         146         0.448277   0.308085   0.436676   x 
            x  Ni         147         0.320649   0.313411   0.315204   x 
            x  Ni         148         0.065656   0.679013   0.438589   x 
            x  Ni         149         0.062918   0.555664   0.314360   x 
            x  Ni         150         0.196256   0.548381   0.442240   x 
            x  Ni         151         0.447046   0.558656   0.436542   x 
            x  Ni         152         0.444482   0.683807   0.310283   x 
            x  Ni         153         0.320208   0.552011   0.315675   x 
            x  Ni         154         0.064884   0.931845   0.436071   x 
            x  Ni         155         0.192791   0.802575   0.433900   x 
            x  Ni         156         0.191459   0.933210   0.314836   x 
            x  Ni         157         0.318175   0.931732   0.437796   x 
            x  Ni         158         0.445806   0.809006   0.435834   x 
            x  Ni         159         0.444130   0.933459   0.314733   x 
            x  Ni         160         0.315640   0.805693   0.313225   x 
            x  Ni         161         0.064711   0.185685   0.436788   x 
            x  Ni         162         0.191122   0.059399   0.440862   x 
            x  Ni         163         0.068302   0.062327   0.315729   x 
            x  Ni         164         0.320188   0.185915   0.440183   x 
            x  Ni         165         0.446145   0.057865   0.436645   x 
            x  Ni         166         0.444555   0.183708   0.314801   x 
            x  Ni         167         0.317781   0.060061   0.317542   x 
            x  Ni         168         0.065989   0.431237   0.684018   x 
            x  Ni         169         0.194500   0.302885   0.684329   x 
            x  Ni         170         0.193380   0.317134   0.438192   x 
            x  Ni         171         0.062363   0.308175   0.558821   x 
            x  Ni         172         0.320354   0.431527   0.687199   x 
            x  Ni         173         0.447409   0.308425   0.687762   x 
            x  Ni         174         0.447522   0.431680   0.559947   x 
            x  Ni         175         0.323235   0.311770   0.560109   x 
            x  Ni         176         0.067707   0.810685   0.807718   x 
            x  Ni         177         0.194764   0.557659   0.685348   x 
            x  Ni         178         0.199522   0.679776   0.559370   x 
            x  Ni         179         0.064717   0.557416   0.562304   x 
            x  Ni         180         0.442091   0.432062   0.814705   x 
            x  Ni         181         0.442882   0.682965   0.564137   x 
            x  Ni         182         0.443811   0.558715   0.690338   x 
            x  Ni         183         0.068439   0.932130   0.680021   x 
            x  Ni         184         0.195402   0.810938   0.683657   x 
            x  Ni         185         0.066534   0.807243   0.557550   x 
            x  Ni         186         0.444381   0.809369   0.689272   x 
            x  Ni         187         0.444638   0.933694   0.561982   x 
            x  Ni         188         0.321225   0.809223   0.562063   x 
            x  Ni         189         0.066105   0.182407   0.680207   x 
            x  Ni         190         0.320451   0.057896   0.560651   x 
            x  Ni         191         0.446126   0.057796   0.687100   x 
            x  Ni         192         0.446524   0.183635   0.560596   x 
            xxxxxxxxxxxxxxxxxxxxxxxxxxxxxxxxxxxxxxxxxxxxxxxxxxxxxxxxxxxx
 
 
                         No user defined ionic velocities
 
                           -------------------------------
                                   Details of Species
                           -------------------------------
 
                               Mass of species in AMU
                                    Al   26.9815400
                                    Ni   58.6934000
 
                          Electric Quadrupole Moment (Barn)
                                    Al    0.1466000 Isotope 27
                                    Ni    0.1620000 Isotope 61
 
                          Files used for pseudopotentials:
                                    Al 3|2.2|2.2|1.4|4|5|5|30:31:32U2U2
                                    Ni 3|2.4|2.4|1.0|8|9|10|40:41:32U2U2(qc=5.5)
 
                           -------------------------------
                              k-Points For BZ Sampling
                           -------------------------------
                       MP grid size for SCF calculation is  1  1  1
                            with an offset of   0.000  0.000  0.000
                       Number of kpoints used =             1
 
                           -------------------------------
                               Symmetry and Constraints
                           -------------------------------
 
                      Maximum deviation from symmetry =  0.00000         ANG
 
                      Number of symmetry operations   =           1
                      Number of ionic constraints     =           3
                      Point group of crystal =     1: C1, 1, 1
                      Space group of crystal =     1: P1, P 1
 
             Set iprint > 1 for details on symmetry rotations/translations
 
                         Centre of mass is constrained
             Set iprint > 1 for details of linear ionic constraints
 
                         Number of cell constraints= 6
                         Cell constraints are:  0 0 0 0 0 0
 
                         External pressure/stress (GPa)
                          0.00000   0.00000   0.00000
                                    0.00000   0.00000
                                              0.00000
 
+---------------- MEMORY AND SCRATCH DISK ESTIMATES PER PROCESS --------------+
|                                                     Memory          Disk    |
| Baseline code, static data and system overhead      855.0 MB         0.0 MB |
| BLAS internal memory storage                          0.0 MB         0.0 MB |
| Model and support data                              349.7 MB         0.0 MB |
| Electronic energy minimisation requirements          97.8 MB         0.0 MB |
| Force calculation requirements                        2.3 MB         0.0 MB |
|                                               ----------------------------- |
| Approx. total storage required per process         1302.5 MB         0.0 MB |
|                                                                             |
| Requirements will fluctuate during execution and may exceed these estimates |
+-----------------------------------------------------------------------------+
Calculating approximate eigenstates for fixed initial Hamiltonian
Cut-off for approx. calculation is  550.359 eV
Resetting cut-off to  900.000 eV
Calculating total energy with cut-off of  900.000 eV.
------------------------------------------------------------------------ <-- SCF
SCF loop      Energy           Fermi           Energy gain       Timer   <-- SCF
                               energy          per atom          (sec)   <-- SCF
------------------------------------------------------------------------ <-- SCF
Initial  -2.71894681E+005  0.00000000E+000                      1479.02  <-- SCF
      1  -2.71332794E+005  3.12618252E+000  -2.20347899E+000    1544.17  <-- SCF
      2  -2.71492158E+005  3.16103998E+000   6.24956304E-001    1610.59  <-- SCF
      3  -2.72654626E+005  8.88425071E+000   4.55869770E+000    1696.98  <-- SCF
      4  -2.72712433E+005  8.89843529E+000   2.26693975E-001    1771.89  <-- SCF
      5  -2.71609308E+005  6.41068402E+000  -4.32597913E+000    1865.54  <-- SCF
      6  -2.71758551E+005  6.40248811E+000   5.85263787E-001    1937.01  <-- SCF
      7  -2.71452832E+005  4.84869480E+000  -1.19889508E+000    2027.36  <-- SCF
      8  -2.71395407E+005  4.43579926E+000  -2.25198696E-001    2097.63  <-- SCF
      9  -2.71388282E+005  4.40201357E+000  -2.79391812E-002    2167.63  <-- SCF
     10  -2.71392208E+005  4.46382890E+000   1.53950717E-002    2241.88  <-- SCF
     11  -2.72033902E+005  5.82055572E+000   2.51644856E+000    2320.77  <-- SCF
     12  -2.71577295E+005  4.74028566E+000  -1.79061525E+000    2421.13  <-- SCF
     13  -2.71450281E+005  4.28612562E+000  -4.98097477E-001    2494.68  <-- SCF
     14  -2.71409742E+005  4.20626240E+000  -1.58973354E-001    2573.06  <-- SCF
     15  -2.71400961E+005  4.30613815E+000  -3.44349930E-002    2651.48  <-- SCF
     16  -2.71394737E+005  4.35839851E+000  -2.44073894E-002    2718.24  <-- SCF
     17  -2.71390692E+005  4.36196838E+000  -1.58652690E-002    2785.53  <-- SCF
     18  -2.71388285E+005  4.35595911E+000  -9.44009748E-003    2853.82  <-- SCF
     19  -2.71386712E+005  4.34319310E+000  -6.16680259E-003    2927.31  <-- SCF
     20  -2.71385869E+005  4.35050789E+000  -3.30604278E-003    2996.87  <-- SCF
     21  -2.71385412E+005  4.37065426E+000  -1.79152005E-003    3077.56  <-- SCF
     22  -2.71385163E+005  4.38402874E+000  -9.75849592E-004    3146.43  <-- SCF
     23  -2.71385024E+005  4.39037649E+000  -5.45627228E-004    3218.83  <-- SCF
     24  -2.71384848E+005  4.38814667E+000  -6.93076205E-004    3287.50  <-- SCF
     25  -2.71384826E+005  4.38547938E+000  -8.24514549E-005    3355.85  <-- SCF
     26  -2.71384786E+005  4.37833331E+000  -1.59704845E-004    3432.20  <-- SCF
     27  -2.71384776E+005  4.37697972E+000  -3.67126203E-005    3499.15  <-- SCF
     28  -2.71384788E+005  4.37801381E+000   4.37763068E-005    3567.02  <-- SCF
     29  -2.71384774E+005  4.38025664E+000  -5.24402834E-005    3631.74  <-- SCF
     30  -2.71384772E+005  4.38044183E+000  -7.49135246E-006    3691.94  <-- SCF
     31  -2.71384772E+005  4.37977030E+000  -1.81106980E-006    3752.81  <-- SCF
     32  -2.71384770E+005  4.37887100E+000  -5.96463954E-006    3814.29  <-- SCF
     33  -2.71384770E+005  4.37880977E+000  -2.66937746E-007    3872.54  <-- SCF
     34  -2.71384770E+005  4.37878741E+000   5.24566909E-007    3923.20  <-- SCF
------------------------------------------------------------------------ <-- SCF
 
Integrated Spin Density     =    0.592890E-01 hbar/2
Integrated |Spin Density|   =    0.129381     hbar/2
 
Final energy, E             =  -271380.2515475     eV
Final free energy (E-TS)    =  -271384.7703521     eV
(energies not corrected for finite basis set)
 
NB est. 0K energy (E-0.5TS)      =  -271382.5109498     eV
 

Writing analysis data to castep.castep_bin

Writing model to castep.check
 
+---------------- MEMORY AND SCRATCH DISK ESTIMATES PER PROCESS --------------+
|                                                     Memory          Disk    |
| Model and support data                              360.0 MB         0.0 MB |
| Electronic energy minimisation requirements          97.8 MB         0.0 MB |
| Geometry minimisation requirements                  126.4 MB         0.0 MB |
|                                               ----------------------------- |
| Approx. total storage required per process          584.2 MB         0.0 MB |
|                                                                             |
| Requirements will fluctuate during execution and may exceed these estimates |
+-----------------------------------------------------------------------------+
 
 
 ************************************** Forces **************************************
 *                                                                                  *
 *                           Cartesian components (eV/A)                            *
 * -------------------------------------------------------------------------------- *
 *                         x                    y                    z              *
 *                                                                                  *
 * Al              1     -0.11370             -0.00769             -0.02789         *
 * Al              2      0.03605             -0.02739             -0.00394         *
 * Al              3     -0.11369             -0.02204              0.01348         *
 * Al              4      0.07255             -0.01086              0.00677         *
 * Al              5     -0.06773              0.00863             -0.13568         *
 * Al              6      0.11510              0.02606              0.00498         *
 * Al              7     -0.15710              0.03479             -0.03402         *
 * Al              8      0.06699              0.01548             -0.02375         *
 * Al              9     -0.09550              0.04128             -0.01060         *
 * Al             10      0.05712              0.01299             -0.03080         *
 * Al             11     -0.05327             -0.13045             -0.00930         *
 * Al             12      0.10480             -0.00371             -0.01899         *
 * Al             13      0.37060              0.10009             -0.02748         *
 * Al             14      0.04624             -0.03824             -0.03668         *
 * Al             15     -0.01086             -0.01029             -0.13285         *
 * Al             16      0.07543              0.02922             -0.02637         *
 * Al             17     -0.09605             -0.05468              0.04878         *
 * Al             18      0.01985              0.02380             -0.00262         *
 * Al             19     -0.07472              0.03298              0.01428         *
 * Al             20      0.06899             -0.00340             -0.00990         *
 * Al             21     -0.03872              0.01340              0.14213         *
 * Al             22      0.12222              0.00502              0.00700         *
 * Al             23      0.01742              0.01548              0.13463         *
 * Al             24      0.03181             -0.00549             -0.00327         *
 * Al             25     -0.09830             -0.06156             -0.01147         *
 * Al             26     -0.01570             -0.02203              0.00970         *
 * Al             27     -0.11541             -0.01374             -0.00093         *
 * Al             28      0.05827              0.02242              0.00461         *
 * Al             29     -0.15390              0.05651              0.01494         *
 * Al             30      0.04713              0.00020              0.00885         *
 * Al             31     -0.18545              0.01929              0.02152         *
 * Al             32      0.08346             -0.02146              0.02084         *
 * Al             33      0.14074              0.17788              0.05143         *
 * Al             34      0.38505              0.14686              0.32263         *
 * Al             35     -0.01839              0.00351             -0.11059         *
 * Al             36      0.15626              0.04954              0.22574         *
 * Al             37     -0.05294             -0.29324             -0.04767         *
 * Al             38      0.04611              0.03008              0.19321         *
 * Al             39     -0.52095             -0.27064              0.56945         *
 * Al             40      0.08637             -0.25695             -0.00865         *
 * Al             41     -0.71160             -0.01843              0.60071         *
 * Al             42      0.24095              0.09800             -0.08206         *
 * Al             43     -0.14768             -0.09106             -0.02625         *
 * Al             44      0.08042             -0.07658              0.35720         *
 * Al             45     -0.07025             -0.01757              0.01725         *
 * Al             46     -0.02225              0.06707             -0.01796         *
 * Al             47     -0.38763             -0.07580              0.01550         *
 * Al             48     -0.25506             -0.07449             -0.02651         *
 * Al             49      0.01849              0.17223              0.13058         *
 * Al             50     -0.29752              0.04948             -0.04967         *
 * Al             51     -0.48895             -0.11966             -0.67175         *
 * Al             52     -0.13987              0.07626              0.19764         *
 * Al             53     -0.56077             -0.04271             -0.65893         *
 * Al             54      0.10777             -0.05180             -0.17154         *
 * Al             55     -0.19143             -0.10542             -0.13346         *
 * Al             56      0.23338              0.03803              0.00288         *
 * Al             57     -0.21823             -0.11504             -0.14306         *
 * Al             58     -0.08288              0.02617              0.14446         *
 * Al             59     -0.00860              0.10774             -0.28970         *
 * Al             60     -0.18810             -0.03255             -0.15044         *
 * Al             61      0.01742              0.04532              0.02522         *
 * Al             62     -0.12022             -0.01106              0.18955         *
 * Al             63     -0.01961              0.11297             -0.00602         *
 * Ni              1     -0.00383              0.05213             -0.02653         *
 * Ni              2      0.00497             -0.00067              0.01250         *
 * Ni              3      0.01676              0.01517             -0.01064         *
 * Ni              4      0.10555             -0.01289             -0.02218         *
 * Ni              5      0.12758             -0.05391             -0.09317         *
 * Ni              6      0.10846              0.05002             -0.11608         *
 * Ni              7      0.11826              0.21641              0.29621         *
 * Ni              8      0.02808             -0.01527              0.01584         *
 * Ni              9      0.04060              0.00837             -0.03004         *
 * Ni             10     -0.00346              0.00228              0.02298         *
 * Ni             11      0.32974             -0.04188             -0.11189         *
 * Ni             12      0.19462              0.10176             -0.06113         *
 * Ni             13      0.10734             -0.15422              0.18236         *
 * Ni             14     -0.05047             -0.01658              0.00369         *
 * Ni             15     -0.08084             -0.02214              0.03133         *
 * Ni             16     -0.01521              0.00283             -0.01235         *
 * Ni             17      0.16228              0.12514              0.00635         *
 * Ni             18      0.14522             -0.02187             -0.15236         *
 * Ni             19     -0.00015             -0.01522              0.08487         *
 * Ni             20      0.05959              0.01244              0.00313         *
 * Ni             21     -0.00045             -0.00499             -0.01210         *
 * Ni             22      0.02856              0.00454             -0.02154         *
 * Ni             23      0.19279             -0.02899             -0.04870         *
 * Ni             24      0.02459             -0.14947             -0.16177         *
 * Ni             25      0.18763              0.04918              0.01636         *
 * Ni             26      0.04449              0.07263              0.01018         *
 * Ni             27      0.06730              0.00446             -0.03155         *
 * Ni             28      0.00039              0.02336             -0.06239         *
 * Ni             29      0.06484              0.06787              0.00730         *
 * Ni             30      0.24339             -0.06969             -0.09914         *
 * Ni             31      0.14913              0.22353             -0.30987         *
 * Ni             32     -0.03341             -0.04768              0.01977         *
 * Ni             33     -0.05155              0.03220              0.01186         *
 * Ni             34     -0.05344             -0.07655             -0.02088         *
 * Ni             35      0.20248             -0.02044             -0.01575         *
 * Ni             36      0.27581              0.12472              0.05156         *
 * Ni             37      0.20394             -0.04990             -0.07618         *
 * Ni             38      0.02673             -0.04411              0.00694         *
 * Ni             39     -0.06988              0.00041              0.02406         *
 * Ni             40     -0.01000             -0.04010             -0.02515         *
 * Ni             41      0.37767              0.02827             -0.03549         *
 * Ni             42      0.24999              0.07033             -0.05957         *
 * Ni             43      0.09139             -0.07624              0.02098         *
 * Ni             44      0.09454              0.01133             -0.00424         *
 * Ni             45     -0.02976             -0.01579              0.03502         *
 * Ni             46      0.00874              0.07364             -0.00240         *
 * Ni             47     -0.12232              0.15087              0.09952         *
 * Ni             48     -0.07552             -0.16127             -0.10212         *
 * Ni             49      0.03711             -0.05463             -0.07246         *
 * Ni             50     -0.03628              0.00820             -0.01166         *
 * Ni             51     -0.00395              0.00693             -0.02019         *
 * Ni             52      0.04529             -0.01135              0.00982         *
 * Ni             53     -0.20639             -0.25972             -0.08957         *
 * Ni             54     -0.24065             -0.08044             -0.23327         *
 * Ni             55      0.09655             -0.00965             -0.14864         *
 * Ni             56     -0.02352             -0.00521             -0.03772         *
 * Ni             57     -0.00539              0.01030              0.01603         *
 * Ni             58     -0.02641              0.01797             -0.02954         *
 * Ni             59     -0.16964              0.21691              0.01943         *
 * Ni             60      0.07832             -0.13199             -0.05291         *
 * Ni             61      0.10073              0.04721             -0.15071         *
 * Ni             62     -0.01041             -0.02328             -0.00765         *
 * Ni             63     -0.10592             -0.00128             -0.04633         *
 * Ni             64     -0.03222              0.01418              0.01493         *
 * Ni             65     -0.05284             -0.09046              0.09842         *
 * Ni             66      0.10403              0.04387             -0.04558         *
 * Ni             67      0.07043              0.02428             -0.13718         *
 * Ni             68     -0.01658              0.01185             -0.01503         *
 * Ni             69     -0.04060             -0.02063             -0.01902         *
 * Ni             70     -0.01276             -0.03178             -0.00600         *
 * Ni             71     -0.29971              0.04473             -0.52539         *
 * Ni             72     -0.11755             -0.03785              0.12039         *
 * Ni             73      0.07808             -0.00194              0.00571         *
 * Ni             74      0.03514              0.00340             -0.00162         *
 * Ni             75      0.12585             -0.01242              0.05113         *
 * Ni             76      0.01259             -0.02817              0.04987         *
 * Ni             77     -0.00355             -0.07416             -0.12758         *
 * Ni             78     -0.25807              0.00696              0.22062         *
 * Ni             79      0.12088             -0.03292              0.14097         *
 * Ni             80      0.02604              0.02766              0.00288         *
 * Ni             81     -0.00163              0.01680             -0.01344         *
 * Ni             82      0.00379             -0.01233             -0.00868         *
 * Ni             83      0.00872             -0.04269             -0.12199         *
 * Ni             84     -0.06982             -0.01828             -0.13326         *
 * Ni             85      0.13283             -0.01032              0.04731         *
 * Ni             86      0.00409             -0.00477             -0.01082         *
 * Ni             87     -0.00873             -0.01120             -0.00820         *
 * Ni             88     -0.04824              0.02275              0.02135         *
 * Ni             89      0.11443              0.12125             -0.15665         *
 * Ni             90     -0.28747             -0.36712             -0.13918         *
 * Ni             91      0.13775              0.05533              0.00444         *
 * Ni             92      0.01623             -0.03122              0.01414         *
 * Ni             93     -0.00555              0.00370             -0.03983         *
 * Ni             94      0.01359              0.01585              0.01694         *
 * Ni             95     -0.14632             -0.08973              0.09661         *
 * Ni             96     -0.44434              0.24798             -0.13761         *
 * Ni             97     -0.20352              0.34631              0.10446         *
 * Ni             98      0.02086             -0.17687              0.18034         *
 * Ni             99      0.08174              0.29795              0.19542         *
 * Ni            100      0.23785              0.07072              0.10172         *
 * Ni            101     -0.20848              0.01812             -0.04468         *
 * Ni            102      0.02984             -0.08499              0.16612         *
 * Ni            103      0.08604              0.00850              0.06494         *
 * Ni            104      0.15144             -0.25393              0.49711         *
 * Ni            105     -0.03615             -0.17864              0.04581         *
 * Ni            106      0.32389             -0.06322              0.02697         *
 * Ni            107     -0.19509             -0.14819              0.01163         *
 * Ni            108     -0.06578              0.00540              0.02526         *
 * Ni            109      0.02009              0.00423             -0.02220         *
 * Ni            110     -0.16634             -0.15995              0.14930         *
 * Ni            111     -0.22472             -0.05436             -0.05721         *
 * Ni            112      0.02303             -0.13532             -0.04596         *
 * Ni            113      0.25786              0.12920              0.06784         *
 * Ni            114      0.01074             -0.03006              0.02089         *
 * Ni            115     -0.05455              0.00701              0.13919         *
 * Ni            116      0.13351              0.23449              0.18550         *
 * Ni            117      0.06618              0.01447              0.12366         *
 * Ni            118      0.13649             -0.00019              0.15715         *
 * Ni            119      0.15874              0.08109              0.02493         *
 * Ni            120     -0.02992              0.05845             -0.26244         *
 * Ni            121     -0.12108             -0.07980              0.24698         *
 * Ni            122     -0.16679             -0.04814              0.12871         *
 * Ni            123     -0.06380              0.15083             -0.15826         *
 * Ni            124      0.13277              0.05065             -0.02524         *
 * Ni            125      0.23849              0.31537             -0.09440         *
 * Ni            126     -0.25092             -0.15030              0.13933         *
 * Ni            127     -0.01547             -0.06674             -0.21710         *
 * Ni            128     -0.20559             -0.05835             -0.01495         *
 * Ni            129      0.00476              0.16916             -0.12891         *
 * Ni            130      0.08586             -0.09518              0.01290         *
 * Ni            131      0.03398             -0.00086              0.09056         *
 * Ni            132      0.15660             -0.02661              0.05324         *
 * Ni            133      0.11800             -0.14943             -0.11660         *
 * Ni            134     -0.08476              0.02401              0.30384         *
 * Ni            135     -0.21426              0.04668              0.06547         *
 * Ni            136     -0.15944              0.04942             -0.15438         *
 * Ni            137     -0.32207             -0.39828             -0.03697         *
 * Ni            138      0.12412              0.09527             -0.01949         *
 * Ni            139     -0.13779             -0.03199             -0.08863         *
 * Ni            140      0.12367             -0.02928             -0.00025         *
 * Ni            141     -0.13012              0.07841              0.19782         *
 * Ni            142      0.17669              0.01775             -0.11701         *
 * Ni            143      0.31985              0.20096             -0.20488         *
 * Ni            144     -0.10621             -0.08087              0.01435         *
 * Ni            145      0.25235              0.03342             -0.15016         *
 * Ni            146     -0.31386             -0.11863              0.13316         *
 * Ni            147      0.01228             -0.04182             -0.01433         *
 * Ni            148      0.29204              0.10940             -0.03739         *
 * Ni            149      0.33233             -0.02473             -0.28995         *
 * Ni            150     -0.10099              0.12369              0.23525         *
 * Ni            151     -0.17537              0.06202              0.01191         *
 * Ni            152      0.04351             -0.01810             -0.06683         *
 * Ni            153     -0.08467              0.13298             -0.33981         *
 * Ni            154      0.24858              0.21387              0.03870         *
 * Ni            155     -0.00566             -0.10729              0.07181         *
 * Ni            156     -0.05499             -0.12789             -0.29852         *
 * Ni            157      0.25393              0.05563             -0.25905         *
 * Ni            158     -0.16920              0.10489              0.24669         *
 * Ni            159     -0.15767             -0.03885              0.10345         *
 * Ni            160     -0.25456              0.17392              0.20433         *
 * Ni            161      0.03306              0.06108              0.10448         *
 * Ni            162     -0.00488             -0.15340              0.08115         *
 * Ni            163      0.04284              0.04852              0.24661         *
 * Ni            164      0.33623              0.05244             -0.11887         *
 * Ni            165     -0.32808              0.04835              0.17296         *
 * Ni            166     -0.11987             -0.02563             -0.02568         *
 * Ni            167     -0.06163             -0.16951              0.10216         *
 * Ni            168     -0.17377              0.16136              0.27003         *
 * Ni            169     -0.02991             -0.11391             -0.06302         *
 * Ni            170      0.05004              0.13134             -0.04451         *
 * Ni            171      0.35855              0.12478              0.36249         *
 * Ni            172      0.28803             -0.15038             -0.10431         *
 * Ni            173     -0.26821              0.25841             -0.05611         *
 * Ni            174      0.11560             -0.11813              0.06581         *
 * Ni            175      0.04692             -0.15546             -0.03362         *
 * Ni            176     -0.01262             -0.05421              0.23558         *
 * Ni            177      0.02898             -0.01932             -0.15013         *
 * Ni            178      0.02262              0.08278             -0.23590         *
 * Ni            179      0.39673             -0.06502              0.07031         *
 * Ni            180     -0.08062              0.02062             -0.10577         *
 * Ni            181     -0.03910             -0.00947              0.04842         *
 * Ni            182     -0.15966             -0.16112             -0.08154         *
 * Ni            183      0.06562              0.10291              0.37564         *
 * Ni            184     -0.14418              0.16153              0.01073         *
 * Ni            185      0.16730             -0.04672              0.03365         *
 * Ni            186     -0.00814             -0.09356             -0.12823         *
 * Ni            187     -0.07305             -0.10423             -0.18008         *
 * Ni            188      0.04913              0.17945             -0.05643         *
 * Ni            189     -0.02495              0.09597              0.31428         *
 * Ni            190      0.11786             -0.03152             -0.18351         *
 * Ni            191     -0.05756              0.02777             -0.10340         *
 * Ni            192      0.07341             -0.02041             -0.14033         *
 *                                                                                  *
 ************************************************************************************
 LBFGS: finished iteration     0 with enthalpy= -2.71384770E+005 eV
  
 +-----------+-----------------+-----------------+------------+-----+ <-- LBFGS
 | Parameter |      value      |    tolerance    |    units   | OK? | <-- LBFGS
 +-----------+-----------------+-----------------+------------+-----+ <-- LBFGS
 |  dE/ion   |   0.000000E+000 |   2.000000E-005 |         eV | No  | <-- LBFGS
 |  |F|max   |   9.314327E-001 |   5.000000E-002 |       eV/A | No  | <-- LBFGS
 |  |dR|max  |   0.000000E+000 |   1.000000E-003 |          A | No  | <-- LBFGS
 +-----------+-----------------+-----------------+------------+-----+ <-- LBFGS
  

================================================================================
 Starting LBFGS iteration          1 ...
================================================================================
  
 +------------+-------------+-------------+-----------------+ <-- min LBFGS
 |    Step    |   lambda    |   F.delta'  |    enthalpy     | <-- min LBFGS
 +------------+-------------+-------------+-----------------+ <-- min LBFGS
 |  previous  |    0.000000 |    2.085064 |  -271384.770352 | <-- min LBFGS
 +------------+-------------+-------------+-----------------+ <-- min LBFGS
  

--------------------------------------------------------------------------------
 LBFGS: starting iteration         1 with trial guess (lambda=  1.000000)
--------------------------------------------------------------------------------
 
                           -------------------------------
                                     Cell Contents
                           -------------------------------
 
            xxxxxxxxxxxxxxxxxxxxxxxxxxxxxxxxxxxxxxxxxxxxxxxxxxxxxxxxxxxxxxxxx
            x  Element         Atom        Fractional coordinates of atoms  x
            x                 Number           u          v          w      x
            x---------------------------------------------------------------x
            x  Al                1         0.570140   0.307953   0.813417   x
            x  Al                2         0.818148   0.308856   0.812792   x
            x  Al                3         0.568942   0.558661   0.814335   x
            x  Al                4         0.817609   0.558334   0.813250   x
            x  Al                5         0.573899   0.808663   0.809663   x
            x  Al                6         0.818466   0.807826   0.812450   x
            x  Al                7         0.571080   0.058598   0.813103   x
            x  Al                8         0.819199   0.058781   0.812124   x
            x  Al                9         0.569420   0.306735   0.063298   x
            x  Al               10         0.818586   0.308128   0.062635   x
            x  Al               11         0.573560   0.553984   0.062761   x
            x  Al               12         0.817563   0.558324   0.062581   x
            x  Al               13         0.576429   0.813468   0.063072   x
            x  Al               14         0.818948   0.808611   0.062401   x
            x  Al               15         0.573191   0.057769   0.059264   x
            x  Al               16         0.819599   0.058538   0.062279   x
            x  Al               17         0.576454   0.302540   0.312570   x
            x  Al               18         0.818855   0.308572   0.312846   x
            x  Al               19         0.574786   0.563944   0.311365   x
            x  Al               20         0.817882   0.558896   0.312621   x
            x  Al               21         0.574758   0.808796   0.315637   x
            x  Al               22         0.819385   0.808400   0.313316   x
            x  Al               23         0.576841   0.058145   0.318833   x
            x  Al               24         0.820241   0.057874   0.313519   x
            x  Al               25         0.572358   0.308722   0.562874   x
            x  Al               26         0.818515   0.309366   0.563703   x
            x  Al               27         0.569726   0.558419   0.563507   x
            x  Al               28         0.818002   0.558383   0.563431   x
            x  Al               29         0.570124   0.808022   0.563635   x
            x  Al               30         0.819405   0.807661   0.563728   x
            x  Al               31         0.571896   0.058090   0.562375   x
            x  Al               32         0.820069   0.058460   0.564132   x
            x  Al               33         0.328759   0.182906   0.683425   x
            x  Al               34         0.056115   0.057387   0.557811   x
            x  Al               35         0.192437   0.189893   0.555171   x
            x  Al               36         0.321899   0.935127   0.688846   x
            x  Al               37         0.192799   0.929488   0.554373   x
            x  Al               38         0.318474   0.687202   0.690557   x
            x  Al               39         0.074735   0.687483   0.678666   x
            x  Al               40         0.197897   0.188954   0.322425   x
            x  Al               41         0.066553   0.805913   0.315367   x
            x  Al               42         0.325171   0.685512   0.437997   x
            x  Al               43         0.192501   0.667395   0.313581   x
            x  Al               44         0.440289   0.432740   0.320405   x
            x  Al               45         0.328015   0.549007   0.561099   x
            x  Al               46         0.193059   0.432831   0.311313   x
            x  Al               47         0.061256   0.434683   0.438648   x
            x  Al               48         0.317572   0.061456   0.062247   x
            x  Al               49         0.439713   0.058159   0.195450   x
            x  Al               50         0.186414   0.054660   0.934810   x
            x  Al               51         0.067792   0.184811   0.191129   x
            x  Al               52         0.433084   0.813795   0.189985   x
            x  Al               53         0.070994   0.945341   0.191504   x
            x  Al               54         0.201168   0.808190   0.181927   x
            x  Al               55         0.431754   0.675082   0.062436   x
            x  Al               56         0.322478   0.430429   0.180485   x
            x  Al               57         0.183680   0.424904   0.060273   x
            x  Al               58         0.187149   0.186050   0.806516   x
            x  Al               59         0.433679   0.814964   0.935642   x
            x  Al               60         0.192275   0.810951   0.937169   x
            x  Al               61         0.191367   0.426227   0.804361   x
            x  Al               62         0.192585   0.426368   0.569001   x
            x  Al               63         0.187739   0.565419   0.933168   x
            x  Ni                1         0.567726   0.431644   0.937542   x
            x  Ni                2         0.693823   0.307868   0.938015   x
            x  Ni                3         0.693253   0.433465   0.813371   x
            x  Ni                4         0.817670   0.433512   0.938004   x
            x  Ni                5         0.942576   0.308933   0.937585   x
            x  Ni                6         0.942474   0.433923   0.812883   x
            x  Ni                7         0.563500   0.686757   0.941384   x
            x  Ni                8         0.692552   0.558754   0.937944   x
            x  Ni                9         0.692629   0.682723   0.813817   x
            x  Ni               10         0.818296   0.683174   0.937724   x
            x  Ni               11         0.942345   0.558442   0.937782   x
            x  Ni               12         0.942770   0.683011   0.812792   x
            x  Ni               13         0.567984   0.932178   0.935918   x
            x  Ni               14         0.694637   0.808561   0.936881   x
            x  Ni               15         0.695034   0.933897   0.811862   x
            x  Ni               16         0.819410   0.933433   0.936862   x
            x  Ni               17         0.942827   0.808038   0.937334   x
            x  Ni               18         0.943286   0.933017   0.812362   x
            x  Ni               19         0.568232   0.183327   0.937575   x
            x  Ni               20         0.695037   0.058274   0.936468   x
            x  Ni               21         0.693944   0.183609   0.812457   x
            x  Ni               22         0.818836   0.183564   0.937275   x
            x  Ni               23         0.943218   0.058488   0.937167   x
            x  Ni               24         0.943145   0.184003   0.812575   x
            x  Ni               25         0.566539   0.431963   0.191466   x
            x  Ni               26         0.694310   0.306828   0.187186   x
            x  Ni               27         0.693322   0.431685   0.063611   x
            x  Ni               28         0.818216   0.433413   0.187611   x
            x  Ni               29         0.942608   0.308789   0.187882   x
            x  Ni               30         0.942234   0.433784   0.062731   x
            x  Ni               31         0.563904   0.687292   0.183500   x
            x  Ni               32         0.693709   0.559244   0.187162   x
            x  Ni               33         0.693573   0.683791   0.062538   x
            x  Ni               34         0.818697   0.683860   0.187295   x
            x  Ni               35         0.942154   0.558675   0.187768   x
            x  Ni               36         0.942681   0.683339   0.062588   x
            x  Ni               37         0.567527   0.935038   0.190051   x
            x  Ni               38         0.694734   0.809608   0.188158   x
            x  Ni               39         0.696276   0.934785   0.062420   x
            x  Ni               40         0.819948   0.933511   0.187965   x
            x  Ni               41         0.943157   0.808233   0.187798   x
            x  Ni               42         0.943188   0.933208   0.062391   x
            x  Ni               43         0.568405   0.179074   0.188249   x
            x  Ni               44         0.694970   0.057575   0.188065   x
            x  Ni               45         0.694609   0.182765   0.062534   x
            x  Ni               46         0.819562   0.182851   0.187431   x
            x  Ni               47         0.943684   0.058294   0.187886   x
            x  Ni               48         0.943089   0.183568   0.062439   x
            x  Ni               49         0.570473   0.433600   0.434656   x
            x  Ni               50         0.695953   0.308377   0.438639   x
            x  Ni               51         0.694500   0.433447   0.312198   x
            x  Ni               52         0.818287   0.434126   0.438132   x
            x  Ni               53         0.942802   0.309253   0.438186   x
            x  Ni               54         0.942314   0.434043   0.312933   x
            x  Ni               55         0.568289   0.684375   0.439172   x
            x  Ni               56         0.694064   0.559257   0.438222   x
            x  Ni               57         0.694833   0.684815   0.312090   x
            x  Ni               58         0.818753   0.683254   0.438379   x
            x  Ni               59         0.942502   0.558697   0.438003   x
            x  Ni               60         0.942557   0.683309   0.312999   x
            x  Ni               61         0.570290   0.932641   0.439839   x
            x  Ni               62         0.695591   0.808082   0.439751   x
            x  Ni               63         0.696664   0.933233   0.314141   x
            x  Ni               64         0.820228   0.932816   0.439188   x
            x  Ni               65         0.943428   0.807822   0.438422   x
            x  Ni               66         0.943701   0.933020   0.313367   x
            x  Ni               67         0.571302   0.182833   0.439421   x
            x  Ni               68         0.697491   0.057921   0.440351   x
            x  Ni               69         0.697743   0.182016   0.313432   x
            x  Ni               70         0.820121   0.183639   0.439154   x
            x  Ni               71         0.943767   0.058307   0.438522   x
            x  Ni               72         0.942874   0.183639   0.313196   x
            x  Ni               73         0.567661   0.433845   0.689271   x
            x  Ni               74         0.693382   0.308807   0.688367   x
            x  Ni               75         0.692916   0.434198   0.563008   x
            x  Ni               76         0.817841   0.433900   0.688191   x
            x  Ni               77         0.943046   0.309298   0.687957   x
            x  Ni               78         0.942747   0.434103   0.563111   x
            x  Ni               79         0.567359   0.683266   0.687861   x
            x  Ni               80         0.692804   0.558385   0.688681   x
            x  Ni               81         0.693858   0.682900   0.563613   x
            x  Ni               82         0.818182   0.682645   0.688467   x
            x  Ni               83         0.942717   0.558430   0.688116   x
            x  Ni               84         0.942995   0.682899   0.563272   x
            x  Ni               85         0.568575   0.933868   0.686986   x
            x  Ni               86         0.694789   0.807919   0.687319   x
            x  Ni               87         0.695374   0.932936   0.563924   x
[...]
            Ni 105 -- Ni 131                 0.02        -0.00          2.58881
            Ni 126 -- Ni 144                 0.07         0.00          2.58885
            Ni 151 -- Ni 152                 0.03         0.00          2.58903
             Al 5  -- Ni 108                 0.17         0.00          2.58928
             Al 9  -- Ni 25                  0.20        -0.00          2.58945
             Al 21 -- Ni 37                  0.20         0.00          2.58989
            Ni 116 -- Ni 118                 0.02        -0.00          2.58994
             Al 25 -- Ni 49                  0.19         0.00          2.59007
             Al 40 -- Ni 145                 0.17         0.00          2.59008
            Ni 14  -- Ni 39                  0.02         0.00          2.59018
            Ni 138 -- Ni 139                -0.01         0.00          2.59022
            Ni 49  -- Ni 75                  0.06         0.00          2.59025
             Al 60 -- Ni 112                 0.17        -0.00          2.59046
             Al 3  -- Ni 180                 0.17        -0.00          2.59077
             Al 15 -- Ni 144                 0.17         0.00          2.59086
            Ni 111 -- Ni 113                 0.08        -0.00          2.59100
             Al 49 -- Ni 37                  0.17        -0.00          2.59131
            Ni 133 -- Ni 135                 0.02        -0.00          2.59136
            Ni 114 -- Ni 140                 0.05        -0.00          2.59145
             Al 36 -- Ni 190                 0.18        -0.00          2.59147
            Ni 67  -- Ni 165                 0.02         0.00          2.59149
            Ni 71  -- Ni 96                  0.02         0.00          2.59151
            Ni 1   -- Ni 8                   0.03        -0.00          2.59170
             Al 16 -- Ni 40                  0.19        -0.00          2.59173
             Al 15 -- Ni 44                  0.20        -0.00          2.59181
            Ni 127 -- Ni 135                 0.09        -0.00          2.59208
            Ni 55  -- Ni 181                 0.07         0.00          2.59234
             Al 23 -- Ni 37                  0.20         0.00          2.59234
            Ni 101 -- Ni 144                 0.09        -0.00          2.59243
             Al 62 -- Ni 179                 0.11        -0.00          2.59260
             Al 36 -- Ni 188                 0.19         0.00          2.59309
             Al 24 -- Ni 46                  0.19         0.00          2.59319
            Ni 119 -- Ni 144                 0.08         0.00          2.59322
            Ni 29  -- Ni 48                  0.01        -0.00          2.59334
            Ni 110 -- Ni 112                 0.05        -0.00          2.59342
            Ni 25  -- Ni 32                  0.03         0.00          2.59349
            Ni 102 -- Ni 172                 0.06        -0.00          2.59400
            Ni 35  -- Ni 129                 0.10         0.00          2.59446
             Al 9  -- Ni 43                  0.21        -0.00          2.59454
            Ni 108 -- Ni 182                 0.08         0.00          2.59468
            Ni 106 -- Ni 131                 0.01        -0.00          2.59497
            Ni 41  -- Ni 42                  0.03        -0.00          2.59549
            Ni 13  -- Ni 139                -0.00         0.00          2.59568
            Ni 129 -- Ni 149                 0.09        -0.00          2.59594
            Ni 37  -- Ni 38                  0.07         0.00          2.59604
             Al 9  -- Ni 144                 0.19        -0.00          2.59619
            Ni 55  -- Ni 57                  0.02         0.00          2.59649
             Al 56 -- Ni 130                 0.13         0.00          2.59664
             Al 38 -- Ni 188                 0.17        -0.00          2.59673
            Ni 49  -- Ni 151                 0.04         0.00          2.59674
            Ni 169 -- Ni 175                -0.03        -0.00          2.59711
             Al 60 -- Ni 113                 0.19        -0.00          2.59724
            Ni 13  -- Ni 120                 0.04        -0.00          2.59777
            Ni 152 -- Ni 158                 0.02         0.00          2.59813
             Al 27 -- Ni 49                  0.19        -0.00          2.59822
            Ni 172 -- Ni 177                -0.01        -0.00          2.59868
            Ni 117 -- Ni 122                 0.04         0.00          2.59871
             Al 45 -- Ni 177                 0.14         0.00          2.59893
             Al 22 -- Ni 62                  0.19        -0.00          2.59900
             Al 61 -- Ni 97                  0.18         0.00          2.59936
             Al 58 -- Ni 117                 0.15        -0.00          2.59948
            Ni 129 -- Ni 132                 0.12        -0.00          2.59948
            Ni 95  -- Ni 96                  0.01         0.00          2.59961
             Al 15 -- Ni 37                  0.19        -0.00          2.59961
            Ni 113 -- Ni 139                 0.01        -0.00          2.59983
            Ni 130 -- Ni 149                -0.01        -0.00          2.60002
            Ni 31  -- Ni 134                 0.04         0.00          2.60029
            Ni 155 -- Ni 156                 0.06        -0.00          2.60034
            Ni 155 -- Ni 157                 0.07         0.00          2.60037
             Al 34 -- Ni 162                 0.16        -0.00          2.60039
            Ni 99  -- Ni 169                 0.02        -0.00          2.60040
            Ni 41  -- Ni 66                 -0.03         0.00          2.60067
             Al 51 -- Ni 124                 0.19        -0.00          2.60097
            Ni 138 -- Ni 159                 0.02         0.00          2.60131
            Ni 13  -- Ni 20                  0.06         0.00          2.60140
            Ni 13  -- Ni 39                  0.01         0.00          2.60163
             Al 38 -- Ni 182                 0.19        -0.00          2.60202
             Al 11 -- Ni 33                  0.19        -0.00          2.60214
            Ni 173 -- Ni 192                 0.00         0.00          2.60264
            Ni 130 -- Ni 131                 0.11        -0.00          2.60275
            Ni 178 -- Ni 185                 0.08        -0.00          2.60289
            Ni 112 -- Ni 122                 0.11         0.00          2.60328
             Al 63 -- Ni 97                  0.17         0.00          2.60384
            Ni 59  -- Ni 78                 -0.00         0.00          2.60416
            Ni 161 -- Ni 162                -0.01         0.00          2.60421
             Al 40 -- Ni 143                 0.19         0.00          2.60543
             Al 57 -- Ni 135                 0.15        -0.00          2.60564
            Ni 117 -- Ni 191                 0.08         0.00          2.60565
            Ni 65  -- Ni 148                 0.04         0.00          2.60570
             Al 19 -- Ni 151                 0.17        -0.00          2.60634
            Ni 129 -- Ni 130                 0.09        -0.00          2.60669
             Al 50 -- Ni 142                 0.15        -0.00          2.60694
            Ni 60  -- Ni 65                  0.01         0.00          2.60695
            Ni 170 -- Ni 171                -0.03         0.00          2.60695
            Ni 111 -- Ni 115                 0.04        -0.00          2.60700
            Ni 178 -- Ni 184                 0.03        -0.00          2.60710
            Ni 133 -- Ni 160                -0.03         0.00          2.60710
            Ni 104 -- Ni 177                 0.05        -0.00          2.60726
             Al 19 -- Ni 49                  0.19        -0.00          2.60742
             Al 40 -- Ni 124                 0.19         0.00          2.60744
             Al 58 -- Ni 122                 0.18         0.00          2.60751
            Ni 71  -- Ni 90                  0.02         0.00          2.60763
             Al 41 -- Ni 129                 0.19         0.00          2.60769
            Ni 53  -- Ni 54                  0.00         0.00          2.60783
             Al 35 -- Ni 122                 0.18         0.00          2.60793
            Ni 142 -- Ni 143                 0.05        -0.00          2.60798
            Ni 47  -- Ni 163                 0.05        -0.00          2.60842
             Al 17 -- Ni 146                 0.15         0.00          2.60955
             Al 34 -- Ni 122                 0.16        -0.00          2.60972
             Al 11 -- Ni 7                   0.19         0.00          2.60974
            Ni 169 -- Ni 172                 0.00         0.00          2.60990
             Al 49 -- Ni 139                 0.17         0.00          2.61017
             Al 56 -- Ni 124                 0.14         0.00          2.61040
            Ni 168 -- Ni 177                 0.04        -0.00          2.61112
            Ni 158 -- Ni 181                -0.01         0.00          2.61118
            Ni 148 -- Ni 150                 0.03         0.00          2.61158
             Al 56 -- Ni 153                 0.17        -0.00          2.61162
            Ni 54  -- Ni 59                  0.00         0.00          2.61211
             Al 51 -- Ni 163                 0.16        -0.00          2.61224
             Al 43 -- Ni 155                 0.18        -0.00          2.61236
            Ni 127 -- Ni 134                 0.02         0.00          2.61259
            Ni 102 -- Ni 109                 0.00        -0.00          2.61329
             Al 48 -- Ni 120                 0.19        -0.00          2.61352
            Ni 156 -- Ni 167                 0.11         0.00          2.61378
            Ni 102 -- Ni 108                 0.11         0.00          2.61382
            Ni 115 -- Ni 117                 0.10         0.00          2.61415
             Al 11 -- Ni 31                  0.19        -0.00          2.61453
            Ni 26  -- Ni 43                  0.06         0.00          2.61470
             Al 21 -- Ni 159                 0.15         0.00          2.61497
             Al 53 -- Ni 137                 0.18        -0.00          2.61513
            Ni 42  -- Ni 47                 -0.01        -0.00          2.61566
            Ni 174 -- Ni 182                 0.00         0.00          2.61644
            Ni 110 -- Ni 118                 0.04        -0.00          2.61658
             Al 61 -- Ni 104                 0.15        -0.00          2.61668
             Al 11 -- Ni 134                 0.16        -0.00          2.61674
            Ni 152 -- Ni 160                 0.01         0.00          2.61712
            Ni 53  -- Ni 78                  0.00         0.00          2.61732
            Ni 65  -- Ni 66                  0.01         0.00          2.61741
            Ni 143 -- Ni 167                 0.00         0.00          2.61771
             Al 36 -- Ni 184                 0.18        -0.00          2.61838
            Ni 108 -- Ni 111                 0.03        -0.00          2.61838
             Al 58 -- Ni 119                 0.17        -0.00          2.61937
            Ni 138 -- Ni 160                 0.05         0.00          2.62007
            Ni 37  -- Ni 39                  0.01         0.00          2.62145
            Ni 126 -- Ni 128                 0.09         0.00          2.62205
             Al 36 -- Ni 122                 0.17         0.00          2.62284
            Ni 121 -- Ni 173                 0.01        -0.00          2.62328
            Ni 178 -- Ni 179                 0.05         0.00          2.62422
            Ni 158 -- Ni 160                 0.11         0.00          2.62433
             Al 5  -- Ni 115                 0.15        -0.00          2.62518
            Ni 140 -- Ni 141                 0.07        -0.00          2.62562
             Al 50 -- Ni 117                 0.14        -0.00          2.62595
            Ni 152 -- Ni 153                 0.10         0.00          2.62625
            Ni 150 -- Ni 153                 0.10        -0.00          2.62648
            Ni 25  -- Ni 127                 0.02         0.00          2.62673
            Ni 7   -- Ni 107                 0.02        -0.00          2.62776
            Ni 136 -- Ni 141                 0.01        -0.00          2.62780
             Al 47 -- Ni 150                 0.18        -0.00          2.62803
            Ni 159 -- Ni 160                 0.09         0.00          2.62913
             Al 11 -- Ni 107                 0.16         0.00          2.62914
             Al 39 -- Ni 178                 0.18        -0.00          2.62932
            Ni 155 -- Ni 188                 0.03         0.00          2.62945
            Ni 124 -- Ni 125                 0.03        -0.00          2.62954
            Ni 106 -- Ni 135                 0.04        -0.00          2.63127
             Al 42 -- Ni 153                 0.20         0.00          2.63153
            Ni 156 -- Ni 157                 0.12        -0.00          2.63193
            Ni 154 -- Ni 155                 0.06         0.00          2.63235
             Al 5  -- Ni 7                   0.18         0.00          2.63274
             Al 21 -- Ni 31                  0.19         0.00          2.63284
            Ni 126 -- Ni 127                -0.00         0.00          2.63288
            Ni 25  -- Ni 27                  0.05        -0.00          2.63629
             Al 59 -- Ni 7                   0.16         0.00          2.63701
             Al 19 -- Ni 31                  0.17        -0.00          2.63728
             Al 52 -- Ni 37                  0.15        -0.00          2.63785
             Al 37 -- Ni 190                 0.15         0.00          2.63943
            Ni 114 -- Ni 138                 0.00         0.00          2.64043
             Al 63 -- Ni 100                 0.15         0.00          2.64156
            Ni 156 -- Ni 162                 0.13         0.00          2.64158
             Al 23 -- Ni 159                 0.14         0.00          2.64306
             Al 48 -- Al 49                  0.26         0.00          2.64503
             Al 23 -- Ni 166                 0.14         0.00          2.64544
            Ni 162 -- Ni 164                 0.01         0.00          2.64563
             Al 48 -- Al 50                  0.25        -0.00          2.64583
             Al 35 -- Ni 189                 0.15        -0.00          2.64701
             Al 37 -- Ni 122                 0.16        -0.00          2.64965
             Al 13 -- Ni 139                 0.16         0.00          2.65015
             Al 35 -- Ni 190                 0.13         0.00          2.65084
             Al 52 -- Ni 31                  0.15        -0.00          2.65178
            Ni 161 -- Ni 170                -0.03         0.00          2.65202
             Al 50 -- Al 58                  0.24        -0.00          2.65272
             Al 50 -- Ni 119                 0.14        -0.00          2.65309
            Ni 7   -- Ni 8                   0.06         0.00          2.65446
            Ni 31  -- Ni 32                  0.05         0.00          2.65521
             Al 45 -- Al 62                  0.29         0.00          2.65557
             Al 3  -- Ni 7                   0.17        -0.00          2.65574
             Al 45 -- Ni 178                 0.11        -0.00          2.65647
            Ni 114 -- Ni 133                -0.03        -0.00          2.65723
             Al 43 -- Ni 160                 0.14         0.00          2.66393
             Al 44 -- Al 56                  0.27         0.00          2.66438
             Al 33 -- Ni 122                 0.14         0.00          2.66541
             Al 42 -- Al 43                  0.24         0.00          2.66589
            Ni 7   -- Ni 9                   0.06        -0.00          2.66925
             Al 23 -- Al 49                  0.24         0.00          2.67005
            Ni 149 -- Ni 150                 0.01         0.00          2.67297
            Ni 168 -- Ni 169                 0.03        -0.00          2.67809
             Al 44 -- Ni 134                 0.11         0.00          2.67932
            Ni 164 -- Ni 170                 0.05         0.00          2.68033
            Ni 31  -- Ni 57                  0.05         0.00          2.68479
             Al 46 -- Al 56                  0.26         0.00          2.68521
             Al 42 -- Al 45                  0.26         0.00          2.68864
             Al 56 -- Al 57                  0.22        -0.00          2.69252
            Ni 134 -- Ni 135                 0.08         0.00          2.69820
             Al 44 -- Ni 126                 0.08         0.00          2.70481
             Al 46 -- Al 47                  0.25         0.00          2.70554
             Al 5  -- Al 59                  0.20         0.00          2.71178
             Al 44 -- Ni 25                  0.11         0.00          2.71222
             Al 11 -- Al 55                  0.20         0.00          2.71387
             Al 36 -- Al 37                  0.22         0.00          2.71777
             Al 33 -- Al 35                  0.21         0.00          2.72596
             Al 34 -- Al 35                  0.19         0.00          2.73132
             Al 47 -- Al 62                  0.22         0.00          2.73357
             Al 57 -- Al 63                  0.19        -0.00          2.73664
             Al 33 -- Al 58                  0.20         0.00          2.74289
             Al 17 -- Al 44                  0.17         0.00          2.74317
             Al 34 -- Al 37                  0.19         0.00          2.74399
             Al 21 -- Al 52                  0.20         0.00          2.74467
             Al 61 -- Al 63                  0.20        -0.00          2.75125
             Al 42 -- Ni 150                 0.14         0.00          2.75656
             Al 19 -- Al 44                  0.17         0.00          2.75891
             Al 52 -- Al 55                  0.20         0.00          2.76138
             Al 55 -- Al 59                  0.19        -0.00          2.76419
             Al 41 -- Al 43                  0.17         0.00          2.76431
             Al 38 -- Al 45                  0.17         0.00          2.76744
             Al 40 -- Al 51                  0.20         0.00          2.77456
             Al 15 -- Al 49                  0.19         0.00          2.77475
             Al 53 -- Al 54                  0.18        -0.00          2.77916
             Al 43 -- Al 54                  0.16         0.00          2.79187
             Al 41 -- Al 53                  0.17        -0.00          2.79994
             Al 13 -- Al 59                  0.17        -0.00          2.82633
             Al 13 -- Al 52                  0.17         0.00          2.82995
             Al 41 -- Al 54                  0.12        -0.00          2.87561
             Al 13 -- Al 55                  0.07        -0.00          2.97247
================================================================================
 

Writing analysis data to castep.castep_bin

Writing model to castep.check
 
 A BibTeX formatted list of references used in this run has been written to 
 castep.bib
 
Initialisation time =     28.29 s
Calculation time    =  16845.02 s
Finalisation time   =     10.56 s
Total time          =  16883.87 s
Peak Memory Use     = 3974476 kB
 
Overall parallel efficiency rating: Satisfactory (65%)
 
Data was distributed by:-
G-vector (128-way); efficiency rating: Satisfactory (67%)
