 +-------------------------------------------------+
 |                                                 |
 |      CCC   AA    SSS  TTTTT  EEEEE  PPPP        |
 |     C     A  A  S       T    E      P   P       |
 |     C     AAAA   SS     T    EEE    PPPP        |
 |     C     A  A     S    T    E      P           |
 |      CCC  A  A  SSS     T    EEEEE  P           |
 |                                                 |
 +-------------------------------------------------+
 |                                                 |
 | Welcome to Academic Release CASTEP version 22.11|
 | Ab Initio Total Energy Program                  |
 |                                                 |
 | Authors:                                        |
 | M. Segall, M. Probert, C. Pickard, P. Hasnip,   |
 | S. Clark, K. Refson, J. R. Yates, M. Payne      |
 |                                                 |
 | Contributors:                                   |
 | P. Lindan, P. Haynes, J. White, V. Milman,      |
 | N. Govind, M. Gibson, P. Tulip, V. Cocula,      |
 | B. Montanari, D. Quigley, M. Glover,            |
 | L. Bernasconi, A. Perlov, M. Plummer,           |
 | E. McNellis, J. Meyer, J. Gale, D. Jochym       |
 | J. Aarons, B. Walker, R. Gillen, D. Jones       |
 | T. Green, I. J. Bush, C. J. Armstrong,          |
 | E. J. Higgins, E. L. Brown, M. S. McFly,        |
 | J. Wilkins, B-C. Shih, P. J. P. Byrne,          |
 | R. J. Maurer, J. C. Womack, J. Dziedzic,        |
 | A. Bartok-Partay, L. LeBlanc, T. K. Stenczel,   |
 | J. Kermode, S. Sturniolo, B. Shi, B. Durham     |
 | M. Evans, M. J. Smith                           |
 |                                                 |
 | Copyright (c) 2000 - 2021                       |
 |                                                 |
 |     Distributed under license from Cambridge    |
 |     Enterprise for academic use only.           |
 |                                                 |
 | Please cite                                     |
 |                                                 |
 |     "First principles methods using CASTEP"     |
 |                                                 |
 |         Zeitschrift fuer Kristallographie       |
 |           220(5-6) pp. 567-570 (2005)           |
 |                                                 |
 | S. J. Clark, M. D. Segall, C. J. Pickard,       |
 | P. J. Hasnip, M. J. Probert, K. Refson,         |
 | M. C. Payne                                     |
 |                                                 |
 |       in all publications arising from          |
 |              your use of CASTEP                 |
 |                                                 |
 +-------------------------------------------------+
 |                                                 |
 |              http://www.castep.org              |
 |                                                 |
 +-------------------------------------------------+
 
 
 
 Compiled for linux_x86_64_ifort on Wed, 18 Jan 2023 15:42:19 +0000
 from code version b807d1bba+  Castep221_branch  Wed Sep 14 11:18:35 2022 +0100
 Compiler: Intel Fortran 19.0.5.281; Optimisation: fast
 MATHLIBS: Intel MKL(2019.0.5) (LAPACK version 3.7.0)
 FFT Lib : mkl
 Fundamental constants values: CODATA 2014
 
 Run started: Thu, 27 Apr 2023 01:22:15 +0100
 
 Atomic calculation performed for Al: 1s2 2s2 2p6 3s2 3p1
 
 Converged in 52 iterations to an ae energy of -6606.982 eV
 
   ============================================================                
   | Pseudopotential Report - Date of generation 27-04-2023   |                
   ------------------------------------------------------------                
   | Element: Al Ionic charge:  3.00 Level of theory: RPBE    |                
   | Atomic Solver: Koelling-Harmon                           |                
   |                                                          |                
   |               Reference Electronic Structure             |                
   |         Orbital         Occupation         Energy        |                
   |            3s              2.000           -0.284        |                
   |            3p              1.000           -0.100        |                
   |                                                          |                
   |                 Pseudopotential Definition               |                
   |        Beta     l      e      Rc     scheme   norm       |                
   |          1      0   -0.284   2.192     qc      0         |                
   |          2      0    0.250   2.192     qc      0         |                
   |          3      1   -0.100   2.192     qc      0         |                
   |          4      1    0.250   2.192     qc      0         |                
   |          5      2    0.000   2.000     qc      0         |                
   |          6      2    0.250   2.000     qc      0         |                
   |         loc     3    0.000   2.192     pn      0         |                
   |                                                          |                
   | Augmentation charge Rinner = 1.398                       |                
   | Partial core correction Rc = 1.398                       |                
   ------------------------------------------------------------                
   | "3|2.2|2.2|1.4|4|5|5|30:31:32U2U2"                       |                
   ------------------------------------------------------------                
   |      Author: Chris J. Pickard, Cambridge University      |                
   ============================================================                
 
 Atomic calculation performed for Ni: 1s2 2s2 2p6 3s2 3p6 3d8 4s2
 
 Converged in 109 iterations to an ae energy of -41381.414 eV
 
   ============================================================                
   | Pseudopotential Report - Date of generation 27-04-2023   |                
   ------------------------------------------------------------                
   | Element: Ni Ionic charge: 10.00 Level of theory: RPBE    |                
   | Atomic Solver: Koelling-Harmon                           |                
   |                                                          |                
   |               Reference Electronic Structure             |                
   |         Orbital         Occupation         Energy        |                
   |            3d              8.000           -0.324        |                
   |            4s              2.000           -0.204        |                
   |                                                          |                
   |                 Pseudopotential Definition               |                
   |        Beta     l      e      Rc     scheme   norm       |                
   |          1      0   -0.204   2.401     qc      0         |                
   |          2      0    0.250   2.401     qc      0         |                
   |          3      1    0.000   2.401     qc      0         |                
   |          4      1    0.250   2.401     qc      0         |                
   |          5      2   -0.324   1.999     qc      0         |                
   |          6      2    0.250   1.999     qc      0         |                
   |         loc     3    0.000   2.401     pn      0         |                
   |                                                          |                
   | Augmentation charge Rinner = 1.001                       |                
   | Partial core correction Rc = 1.001                       |                
   ------------------------------------------------------------                
   | "3|2.4|2.4|1.0|8|9|10|40:41:32U2U2(qc=5.5)"              |                
   ------------------------------------------------------------                
   |      Author: Chris J. Pickard, Cambridge University      |                
   ============================================================                
 
 Pseudo atomic calculation performed for Al 3s2 3p1
 
 Converged in 13 iterations to a total energy of -107.6593 eV
 
 Pseudo atomic calculation performed for Ni 3d8 4s2
 
 Converged in 41 iterations to a total energy of -1369.7890 eV
 Calculation parallelised over 128 processes.
 Data is distributed by G-vector(128-way)

 ************************************ Title ************************************
 

 ***************************** General Parameters ******************************
  
 output verbosity                               : normal  (1)
 write checkpoint data to                       : castep.check
 type of calculation                            : geometry optimization
 stress calculation                             : off
 density difference calculation                 : off
 electron localisation func (ELF) calculation   : off
 Hirshfeld analysis                             : off
 polarisation (Berry phase) analysis            : off
 molecular orbital projected DOS                : off
 deltaSCF calculation                           : off
 unlimited duration calculation
 timing information                             : on
 memory usage estimate                          : on
 write extra output files                       : on
 write final potential to formatted file        : off
 write final density to formatted file          : off
 write BibTeX reference list                    : on
 write OTFG pseudopotential files               : on
 write electrostatic potential file             : on
 write bands file                               : on
 checkpoint writing                             : both castep_bin and check files
  
 output         length unit                     : A
 output           mass unit                     : amu
 output           time unit                     : ps
 output         charge unit                     : e
 output           spin unit                     : hbar/2
 output         energy unit                     : eV
 output          force unit                     : eV/A
 output       velocity unit                     : A/ps
 output       pressure unit                     : GPa
 output     inv_length unit                     : 1/A
 output      frequency unit                     : cm-1
 output force constant unit                     : eV/A**2
 output         volume unit                     : A**3
 output   IR intensity unit                     : (D/A)**2/amu
 output         dipole unit                     : D
 output         efield unit                     : eV/A/e
 output        entropy unit                     : J/mol/K
 output    efield chi2 unit                     : pm/V
  
 wavefunctions paging                           : none
 random number generator seed                   : randomised (12217285)
 data distribution                              : optimal for this architecture
 optimization strategy                          : maximize speed(+++)

 *********************** Exchange-Correlation Parameters ***********************
  
 using functional                               : revised Perdew Burke Ernzerhof
 relativistic treatment                         : Koelling-Harmon
 DFT+D: Semi-empirical dispersion correction    : off

 ************************* Pseudopotential Parameters **************************
  
 pseudopotential representation                 : reciprocal space
 <beta|phi> representation                      : reciprocal space
 spin-orbit coupling                            : off

 **************************** Basis Set Parameters *****************************
  
 plane wave basis set cut-off                   :   900.0000   eV
 size of standard grid                          :     1.7500
 size of   fine   gmax                          :    26.8966   1/A
 finite basis set correction                    : none

 **************************** Electronic Parameters ****************************
  
 number of  electrons                           :  2109.    
 net charge of system                           :  0.000    
 net spin   of system                           :  1.000    
 number of  up  spins                           :  1055.    
 number of down spins                           :  1054.    
 treating system as spin-polarized
 number of bands                                :       1167

 ********************* Electronic Minimization Parameters **********************
  
 Method: Treating system as metallic with density mixing treatment of electrons,
         and number of  SD  steps               :          1
         and number of  CG  steps               :          4
  
 total energy / atom convergence tol.           : 0.1000E-05   eV
 eigen-energy convergence tolerance             : 0.2185E-06   eV
 max force / atom convergence tol.              : ignored
 convergence tolerance window                   :          3   cycles
 max. number of SCF cycles                      :        200
 number of fixed-spin iterations                :         10
 smearing scheme                                : Gaussian
 smearing width                                 : 0.2000       eV
 Fermi energy convergence tolerance             : 0.2721E-13   eV
 periodic dipole correction                     : NONE
 periodically dump wavefunctions to             : castep.wvfn
 dump wavefunctions every                       :          1   SCF cycles

 ************************** Density Mixing Parameters **************************
  
 density-mixing scheme                          : Pulay
 max. length of mixing history                  :         20
 charge density mixing amplitude                : 0.8000    
   spin density mixing amplitude                :  2.000    
 cut-off energy for mixing                      :  900.0       eV

 *********************** Population Analysis Parameters ************************
  
 Population analysis with cutoff                :  3.000       A
 Population analysis output                     : summary and pdos components

 ********************** Geometry Optimization Parameters ***********************
  
 optimization method                            : LBFGS
 max. no. of LBFGS updates                      : unbounded
 variable cell method                           : fixed basis quality
 max. number of steps                           :         30
 estimated bulk modulus                         :  500.0       GPa
 estimated <frequency>                          :  1668.       cm-1
 geom line minimiser                            : on
 with line minimiser tolerance                  :     0.4000
  with spin fully able to relax for all steps
 total energy convergence tolerance             : 0.2000E-04   eV/atom
        max ionic |force| tolerance             : 0.5000E-01   eV/A
 max ionic |displacement| tolerance             : 0.1000E-02   A
   max |stress component| tolerance             : 0.1000       GPa
 convergence tolerance window                   :          2   steps
 backup results every                           :          5   steps
 write geom trajectory file                     : on

 *******************************************************************************
  
 
                           -------------------------------
                                      Unit Cell
                           -------------------------------
        Real Lattice(A)                      Reciprocal Lattice(1/A)
    14.4648280     0.0000000     0.0000000        0.434376773   0.000000000   0.000000000
     0.0000000    14.4648280     0.0000000        0.000000000   0.434376773   0.000000000
     0.0000000     0.0000000    14.4648280        0.000000000   0.000000000   0.434376773
 
                       Lattice parameters(A)       Cell Angles
                    a =     14.464828          alpha =   90.000000
                    b =     14.464828          beta  =   90.000000
                    c =     14.464828          gamma =   90.000000
 
                       Current cell volume =          3026.494030       A**3
                                   density =             4.285146   AMU/A**3
                                           =             7.115653     g/cm^3
 
                           -------------------------------
                                     Cell Contents
                           -------------------------------
                         Total number of ions in cell =  255
                      Total number of species in cell =    2
                        Max number of any one species =  192
 
            xxxxxxxxxxxxxxxxxxxxxxxxxxxxxxxxxxxxxxxxxxxxxxxxxxxxxxxxxxxx
            x  Element    Atom        Fractional coordinates of atoms  x
            x            Number           u          v          w      x
            x----------------------------------------------------------x
            x  Al           1         0.569972   0.062057   0.316580   x 
            x  Al           2         0.817892   0.062833   0.314943   x 
            x  Al           3         0.570177   0.313508   0.316221   x 
            x  Al           4         0.817952   0.312229   0.314866   x 
            x  Al           5         0.575162   0.563845   0.310869   x 
            x  Al           6         0.819428   0.562223   0.313674   x 
            x  Al           7         0.571125   0.811228   0.315674   x 
            x  Al           8         0.819348   0.812936   0.314007   x 
            x  Al           9         0.569152   0.060628   0.562883   x 
            x  Al          10         0.817422   0.062637   0.564702   x 
            x  Al          11         0.569455   0.314625   0.562653   x 
            x  Al          12         0.817317   0.312524   0.564789   x 
            x  Al          13         0.577694   0.564870   0.564917   x 
            x  Al          14         0.819140   0.562291   0.564896   x 
            x  Al          15         0.573316   0.810063   0.560586   x 
            x  Al          16         0.819246   0.812582   0.564596   x 
            x  Al          17         0.571811   0.060548   0.813224   x 
            x  Al          18         0.816637   0.063323   0.814354   x 
            x  Al          19         0.569587   0.313702   0.813470   x 
            x  Al          20         0.816518   0.311943   0.814628   x 
            x  Al          21         0.574558   0.563102   0.818279   x 
            x  Al          22         0.818882   0.561753   0.815801   x 
            x  Al          23         0.576357   0.811143   0.820088   x 
            x  Al          24         0.819020   0.812751   0.815319   x 
            x  Al          25         0.571145   0.062323   0.066383   x 
            x  Al          26         0.817177   0.063441   0.065143   x 
            x  Al          27         0.568851   0.312738   0.067047   x 
            x  Al          28         0.817324   0.311730   0.064861   x 
            x  Al          29         0.570363   0.562175   0.065626   x 
            x  Al          30         0.819320   0.561608   0.064897   x 
            x  Al          31         0.571595   0.812037   0.064557   x 
            x  Al          32         0.819442   0.813204   0.065420   x 
            x  Al          33         0.328557   0.935948   0.187121   x 
            x  Al          34         0.056440   0.811210   0.059350   x 
            x  Al          35         0.192987   0.943468   0.057199   x 
            x  Al          36         0.321520   0.687934   0.192071   x 
            x  Al          37         0.192973   0.683228   0.056417   x 
            x  Al          38         0.317754   0.444259   0.194856   x 
            x  Al          39         0.074048   0.442142   0.180930   x 
            x  Al          40         0.198283   0.941765   0.823679   x 
            x  Al          41         0.067004   0.559082   0.816775   x 
            x  Al          42         0.325210   0.438299   0.940212   x 
            x  Al          43         0.193425   0.421056   0.814125   x 
            x  Al          44         0.330919   0.181932   0.936588   x 
            x  Al          45         0.327467   0.309313   0.071771   x 
            x  Al          46         0.190664   0.187129   0.807762   x 
            x  Al          47         0.063351   0.189214   0.940163   x 
            x  Al          48         0.317789   0.813367   0.563395   x 
            x  Al          49         0.440144   0.810179   0.695846   x 
            x  Al          50         0.186347   0.807274   0.436892   x 
            x  Al          51         0.068160   0.938226   0.692717   x 
            x  Al          52         0.433846   0.564417   0.688666   x 
            x  Al          53         0.070741   0.698792   0.693494   x 
            x  Al          54         0.200871   0.561531   0.682640   x 
            x  Al          55         0.325657   0.322954   0.556627   x 
            x  Al          56         0.329779   0.182835   0.687918   x 
            x  Al          57         0.184760   0.178296   0.563178   x 
            x  Al          58         0.187134   0.939595   0.309625   x 
            x  Al          59         0.433695   0.563328   0.439895   x 
            x  Al          60         0.191616   0.563874   0.439320   x 
            x  Al          61         0.191037   0.180550   0.307510   x 
            x  Al          62         0.192188   0.181301   0.074352   x 
            x  Al          63         0.184316   0.321187   0.432703   x 
            x  Ni           1         0.567491   0.187486   0.439658   x 
            x  Ni           2         0.693602   0.062152   0.439921   x 
            x  Ni           3         0.693447   0.187695   0.315717   x 
            x  Ni           4         0.817537   0.187876   0.440044   x 
            x  Ni           5         0.942045   0.063030   0.439797   x 
            x  Ni           6         0.942209   0.187764   0.314748   x 
            x  Ni           7         0.568256   0.442872   0.438019   x 
            x  Ni           8         0.692667   0.313602   0.439746   x 
            x  Ni           9         0.695012   0.437421   0.314256   x 
            x  Ni          10         0.818773   0.437130   0.439529   x 
            x  Ni          11         0.942265   0.312410   0.439771   x 
            x  Ni          12         0.942637   0.436946   0.314328   x 
            x  Ni          13         0.568054   0.683887   0.438197   x 
            x  Ni          14         0.696606   0.563056   0.438450   x 
            x  Ni          15         0.695918   0.687983   0.313604   x 
            x  Ni          16         0.820007   0.687630   0.438965   x 
            x  Ni          17         0.942651   0.562030   0.439378   x 
            x  Ni          18         0.943229   0.687340   0.314034   x 
            x  Ni          19         0.568259   0.936369   0.439135   x 
            x  Ni          20         0.695153   0.811492   0.438510   x 
            x  Ni          21         0.693868   0.937203   0.314771   x 
            x  Ni          22         0.818504   0.937558   0.439442   x 
            x  Ni          23         0.942975   0.812750   0.439391   x 
            x  Ni          24         0.942776   0.938197   0.314507   x 
            x  Ni          25         0.449117   0.186150   0.812414   x 
            x  Ni          26         0.691896   0.061593   0.688249   x 
            x  Ni          27         0.692296   0.187707   0.564126   x 
            x  Ni          28         0.816500   0.187726   0.689418   x 
            x  Ni          29         0.941673   0.063116   0.689856   x 
            x  Ni          30         0.941753   0.187816   0.564921   x 
            x  Ni          31         0.567340   0.441915   0.689942   x 
            x  Ni          32         0.691442   0.313324   0.688813   x 
            x  Ni          33         0.694312   0.437840   0.564515   x 
            x  Ni          34         0.817997   0.437014   0.690107   x 
            x  Ni          35         0.941797   0.312326   0.689993   x 
            x  Ni          36         0.942303   0.437147   0.564935   x 
            x  Ni          37         0.567516   0.687163   0.691255   x 
            x  Ni          38         0.695459   0.563335   0.690964   x 
            x  Ni          39         0.696686   0.687999   0.564509   x 
            x  Ni          40         0.819739   0.687566   0.690359   x 
            x  Ni          41         0.942520   0.561948   0.690277   x 
            x  Ni          42         0.942844   0.687255   0.564779   x 
            x  Ni          43         0.568253   0.932558   0.689249   x 
            x  Ni          44         0.694299   0.811232   0.689920   x 
            x  Ni          45         0.694121   0.936409   0.564169   x 
            x  Ni          46         0.818132   0.937545   0.689527   x 
            x  Ni          47         0.942932   0.812751   0.690105   x 
            x  Ni          48         0.942333   0.937957   0.564734   x 
            x  Ni          49         0.567772   0.187685   0.939661   x 
            x  Ni          50         0.692840   0.063051   0.939995   x 
            x  Ni          51         0.691221   0.187705   0.813639   x 
            x  Ni          52         0.816658   0.187777   0.939625   x 
            x  Ni          53         0.942005   0.063492   0.939654   x 
            x  Ni          54         0.941585   0.187817   0.814710   x 
            x  Ni          55         0.567303   0.437348   0.941104   x 
            x  Ni          56         0.691767   0.312194   0.940143   x 
            x  Ni          57         0.693742   0.437060   0.815365   x 
            x  Ni          58         0.818048   0.436231   0.940277   x 
            x  Ni          59         0.942054   0.312024   0.939666   x 
            x  Ni          60         0.942166   0.436713   0.815135   x 
            x  Ni          61         0.569860   0.686676   0.941970   x 
            x  Ni          62         0.695144   0.561676   0.941765   x 
            x  Ni          63         0.696463   0.687087   0.816237   x 
            x  Ni          64         0.819738   0.687137   0.940825   x 
            x  Ni          65         0.942960   0.561671   0.940067   x 
            x  Ni          66         0.942971   0.687284   0.815376   x 
            x  Ni          67         0.570358   0.936818   0.940712   x 
            x  Ni          68         0.696630   0.812470   0.941806   x 
            x  Ni          69         0.695137   0.937416   0.814761   x 
            x  Ni          70         0.818477   0.938681   0.940348   x 
            x  Ni          71         0.942925   0.812997   0.940020   x 
            x  Ni          72         0.942028   0.938334   0.814912   x 
            x  Ni          73         0.567604   0.187832   0.192884   x 
            x  Ni          74         0.692814   0.062555   0.191056   x 
            x  Ni          75         0.691910   0.187851   0.065645   x 
            x  Ni          76         0.817493   0.187581   0.190019   x 
            x  Ni          77         0.942490   0.063280   0.189608   x 
            x  Ni          78         0.942096   0.187726   0.064581   x 
            x  Ni          79         0.567899   0.438253   0.190762   x 
            x  Ni          80         0.692967   0.312375   0.190562   x 
            x  Ni          81         0.693331   0.436490   0.065311   x 
            x  Ni          82         0.818662   0.436531   0.189294   x 
            x  Ni          83         0.942481   0.312094   0.189564   x 
            x  Ni          84         0.942829   0.436503   0.064602   x 
            x  Ni          85         0.568847   0.688002   0.188854   x 
            x  Ni          86         0.695647   0.562360   0.188407   x 
            x  Ni          87         0.695376   0.687362   0.065415   x 
            x  Ni          88         0.819678   0.687747   0.189172   x 
            x  Ni          89         0.943077   0.561885   0.189244   x 
            x  Ni          90         0.943560   0.687373   0.064729   x 
            x  Ni          91         0.567759   0.936129   0.190823   x 
            x  Ni          92         0.694360   0.812757   0.189700   x 
            x  Ni          93         0.694074   0.937994   0.065891   x 
            x  Ni          94         0.818587   0.938275   0.189916   x 
            x  Ni          95         0.943472   0.812996   0.189371   x 
            x  Ni          96         0.942841   0.938634   0.064728   x 
            x  Ni          97         0.069502   0.184617   0.434376   x 
            x  Ni          98         0.191269   0.060157   0.435978   x 
            x  Ni          99         0.063992   0.058943   0.310349   x 
            x  Ni         100         0.311170   0.190745   0.439770   x 
            x  Ni         101         0.442283   0.060775   0.439961   x 
            x  Ni         102         0.316680   0.316008   0.317973   x 
            x  Ni         103         0.319619   0.059753   0.314751   x 
            x  Ni         104         0.063288   0.315337   0.306895   x 
            x  Ni         105         0.063058   0.442383   0.437654   x 
            x  Ni         106         0.316662   0.560236   0.559568   x 
            x  Ni         107         0.444038   0.316670   0.437516   x 
            x  Ni         108         0.443256   0.441264   0.316949   x 
            x  Ni         109         0.190036   0.441768   0.313556   x 
            x  Ni         110         0.065820   0.687456   0.437470   x 
            x  Ni         111         0.316702   0.563331   0.317417   x 
            x  Ni         112         0.190239   0.689230   0.310009   x 
            x  Ni         113         0.314524   0.689878   0.437640   x 
            x  Ni         114         0.446607   0.443016   0.563079   x 
            x  Ni         115         0.444445   0.687391   0.315322   x 
            x  Ni         116         0.065441   0.934163   0.435694   x 
            x  Ni         117         0.315917   0.814248   0.312472   x 
            x  Ni         118         0.066702   0.811459   0.307831   x 
            x  Ni         119         0.314363   0.933766   0.437552   x 
            x  Ni         120         0.442936   0.810097   0.439786   x 
            x  Ni         121         0.444399   0.935979   0.316010   x 
            x  Ni         122         0.193316   0.814148   0.180727   x 
            x  Ni         123         0.064728   0.184726   0.689122   x 
            x  Ni         124         0.193346   0.060458   0.690176   x 
            x  Ni         125         0.062911   0.057307   0.563085   x 
            x  Ni         126         0.447727   0.058305   0.687117   x 
            x  Ni         127         0.442724   0.188066   0.560679   x 
            x  Ni         128         0.319114   0.060804   0.562584   x 
            x  Ni         129         0.071255   0.437054   0.691065   x 
            x  Ni         130         0.196421   0.306230   0.681910   x 
            x  Ni         131         0.191099   0.436159   0.560354   x 
            x  Ni         132         0.065053   0.311727   0.562612   x 
            x  Ni         133         0.317170   0.434235   0.688918   x 
            x  Ni         134         0.566799   0.187278   0.686673   x 
            x  Ni         135         0.445767   0.314583   0.686199   x 
            x  Ni         136         0.066887   0.813951   0.564906   x 
            x  Ni         137         0.069326   0.567598   0.568223   x 
            x  Ni         138         0.315621   0.689509   0.690358   x 
            x  Ni         139         0.443627   0.687573   0.565352   x 
            x  Ni         140         0.191189   0.690760   0.564863   x 
            x  Ni         141         0.195246   0.817251   0.692263   x 
            x  Ni         142         0.190904   0.937475   0.562397   x 
            x  Ni         143         0.318100   0.937534   0.690569   x 
            x  Ni         144         0.443311   0.932979   0.564333   x 
            x  Ni         145         0.064742   0.062920   0.816011   x 
            x  Ni         146         0.449905   0.060237   0.939201   x 
            x  Ni         147         0.322778   0.063574   0.813334   x 
            x  Ni         148         0.066560   0.432227   0.940105   x 
            x  Ni         149         0.064465   0.309752   0.814736   x 
            x  Ni         150         0.198666   0.302084   0.943583   x 
            x  Ni         151         0.445872   0.312659   0.940316   x 
            x  Ni         152         0.444803   0.438720   0.813280   x 
            x  Ni         153         0.322688   0.307691   0.813837   x 
            x  Ni         154         0.065325   0.685449   0.937515   x 
            x  Ni         155         0.193256   0.556106   0.935409   x 
            x  Ni         156         0.191949   0.686369   0.815944   x 
            x  Ni         157         0.318250   0.685243   0.939297   x 
            x  Ni         158         0.445517   0.562973   0.938460   x 
            x  Ni         159         0.444039   0.686006   0.815677   x 
            x  Ni         160         0.316230   0.558873   0.814060   x 
            x  Ni         161         0.065484   0.939659   0.938370   x 
            x  Ni         162         0.191759   0.812816   0.942318   x 
            x  Ni         163         0.068595   0.815858   0.817404   x 
            x  Ni         164         0.320793   0.940149   0.941540   x 
            x  Ni         165         0.445790   0.811365   0.938415   x 
            x  Ni         166         0.445374   0.935764   0.815455   x 
            x  Ni         167         0.318293   0.813043   0.818353   x 
            x  Ni         168         0.065513   0.185091   0.186945   x 
            x  Ni         169         0.194653   0.056532   0.187637   x 
            x  Ni         170         0.194030   0.071262   0.939174   x 
            x  Ni         171         0.063490   0.062329   0.060631   x 
            x  Ni         172         0.319857   0.186804   0.192372   x 
            x  Ni         173         0.447023   0.061976   0.191959   x 
            x  Ni         174         0.446929   0.186480   0.067135   x 
            x  Ni         175         0.323466   0.063388   0.065346   x 
            x  Ni         176         0.065998   0.565266   0.309380   x 
            x  Ni         177         0.194005   0.313016   0.190595   x 
            x  Ni         178         0.199047   0.434148   0.062148   x 
            x  Ni         179         0.065857   0.311319   0.064578   x 
            x  Ni         180         0.441745   0.186835   0.318029   x 
            x  Ni         181         0.443352   0.438184   0.067568   x 
            x  Ni         182         0.444276   0.314109   0.195762   x 
            x  Ni         183         0.068002   0.686206   0.181787   x 
            x  Ni         184         0.194681   0.565550   0.186225   x 
            x  Ni         185         0.066501   0.561151   0.059113   x 
            x  Ni         186         0.444510   0.564349   0.191447   x 
            x  Ni         187         0.444263   0.687736   0.064235   x 
            x  Ni         188         0.320817   0.563122   0.064205   x 
            x  Ni         189         0.066435   0.936201   0.182341   x 
            x  Ni         190         0.320273   0.811435   0.063063   x 
            x  Ni         191         0.445731   0.810639   0.190317   x 
            x  Ni         192         0.446481   0.936182   0.063894   x 
            xxxxxxxxxxxxxxxxxxxxxxxxxxxxxxxxxxxxxxxxxxxxxxxxxxxxxxxxxxxx
 
 
                         No user defined ionic velocities
 
                           -------------------------------
                                   Details of Species
                           -------------------------------
 
                               Mass of species in AMU
                                    Al   26.9815400
                                    Ni   58.6934000
 
                          Electric Quadrupole Moment (Barn)
                                    Al    0.1466000 Isotope 27
                                    Ni    0.1620000 Isotope 61
 
                          Files used for pseudopotentials:
                                    Al 3|2.2|2.2|1.4|4|5|5|30:31:32U2U2
                                    Ni 3|2.4|2.4|1.0|8|9|10|40:41:32U2U2(qc=5.5)
 
                           -------------------------------
                              k-Points For BZ Sampling
                           -------------------------------
                       MP grid size for SCF calculation is  1  1  1
                            with an offset of   0.000  0.000  0.000
                       Number of kpoints used =             1
 
                           -------------------------------
                               Symmetry and Constraints
                           -------------------------------
 
                      Maximum deviation from symmetry =  0.00000         ANG
 
                      Number of symmetry operations   =           1
                      Number of ionic constraints     =           3
                      Point group of crystal =     1: C1, 1, 1
                      Space group of crystal =     1: P1, P 1
 
             Set iprint > 1 for details on symmetry rotations/translations
 
                         Centre of mass is constrained
             Set iprint > 1 for details of linear ionic constraints
 
                         Number of cell constraints= 6
                         Cell constraints are:  0 0 0 0 0 0
 
                         External pressure/stress (GPa)
                          0.00000   0.00000   0.00000
                                    0.00000   0.00000
                                              0.00000
 
+---------------- MEMORY AND SCRATCH DISK ESTIMATES PER PROCESS --------------+
|                                                     Memory          Disk    |
| Baseline code, static data and system overhead      855.0 MB         0.0 MB |
| BLAS internal memory storage                          0.0 MB         0.0 MB |
| Model and support data                              349.7 MB         0.0 MB |
| Electronic energy minimisation requirements          97.8 MB         0.0 MB |
| Force calculation requirements                        2.3 MB         0.0 MB |
|                                               ----------------------------- |
| Approx. total storage required per process         1302.5 MB         0.0 MB |
|                                                                             |
| Requirements will fluctuate during execution and may exceed these estimates |
+-----------------------------------------------------------------------------+
Calculating approximate eigenstates for fixed initial Hamiltonian
Cut-off for approx. calculation is  550.359 eV
Resetting cut-off to  900.000 eV
Calculating total energy with cut-off of  900.000 eV.
------------------------------------------------------------------------ <-- SCF
SCF loop      Energy           Fermi           Energy gain       Timer   <-- SCF
                               energy          per atom          (sec)   <-- SCF
------------------------------------------------------------------------ <-- SCF
Initial  -2.71901032E+005  0.00000000E+000                      1474.52  <-- SCF
      1  -2.71334255E+005  3.12777662E+000  -2.22265482E+000    1539.76  <-- SCF
      2  -2.71493041E+005  3.16114812E+000   6.22692075E-001    1617.85  <-- SCF
      3  -2.72648636E+005  8.90459132E+000   4.53174278E+000    1705.80  <-- SCF
      4  -2.72705834E+005  8.91463325E+000   2.24307653E-001    1788.78  <-- SCF
      5  -2.71614991E+005  6.39387801E+000  -4.27781546E+000    1880.70  <-- SCF
      6  -2.71753693E+005  6.38053511E+000   5.43926732E-001    1967.62  <-- SCF
      7  -2.71451168E+005  4.84172958E+000  -1.18636977E+000    2067.94  <-- SCF
      8  -2.71396839E+005  4.44703181E+000  -2.13056962E-001    2160.30  <-- SCF
      9  -2.71388458E+005  4.40512637E+000  -3.28667131E-002    2235.26  <-- SCF
     10  -2.71392113E+005  4.45800626E+000   1.43345219E-002    2302.64  <-- SCF
     11  -2.72042155E+005  5.82746636E+000   2.54918453E+000    2378.10  <-- SCF
     12  -2.71533709E+005  4.78109316E+000  -1.99390707E+000    2494.88  <-- SCF
     13  -2.71454602E+005  4.28410084E+000  -3.10223236E-001    2597.09  <-- SCF
     14  -2.71411442E+005  4.21838644E+000  -1.69256013E-001    2689.96  <-- SCF
     15  -2.71401686E+005  4.29035203E+000  -3.82587354E-002    2758.98  <-- SCF
     16  -2.71396607E+005  4.34589528E+000  -1.99179454E-002    2851.37  <-- SCF
     17  -2.71391413E+005  4.36621086E+000  -2.03691139E-002    2918.90  <-- SCF
     18  -2.71388543E+005  4.36686006E+000  -1.12534421E-002    2990.05  <-- SCF
     19  -2.71386870E+005  4.35135477E+000  -6.55872704E-003    3080.31  <-- SCF
     20  -2.71386191E+005  4.33805302E+000  -2.66541579E-003    3155.94  <-- SCF
     21  -2.71385831E+005  4.35447611E+000  -1.41002796E-003    3224.62  <-- SCF
     22  -2.71385481E+005  4.37915712E+000  -1.37445995E-003    3297.30  <-- SCF
     23  -2.71385362E+005  4.38669104E+000  -4.66231067E-004    3379.51  <-- SCF
     24  -2.71385313E+005  4.38589834E+000  -1.91079022E-004    3462.83  <-- SCF
     25  -2.71385282E+005  4.38023630E+000  -1.23563997E-004    3535.84  <-- SCF
     26  -2.71385188E+005  4.37711238E+000  -3.67107842E-004    3600.55  <-- SCF
     27  -2.71385168E+005  4.37516444E+000  -7.92592199E-005    3677.84  <-- SCF
     28  -2.71385180E+005  4.37574824E+000   4.66536730E-005    3753.09  <-- SCF
     29  -2.71385169E+005  4.37722767E+000  -4.32465600E-005    3818.39  <-- SCF
     30  -2.71385167E+005  4.37752994E+000  -6.59556104E-006    3904.35  <-- SCF
     31  -2.71385166E+005  4.37750072E+000  -2.56002451E-006    3977.00  <-- SCF
     32  -2.71385165E+005  4.37713048E+000  -6.51155765E-006    4039.78  <-- SCF
     33  -2.71385165E+005  4.37712799E+000   5.57773722E-007    4098.43  <-- SCF
     34  -2.71385165E+005  4.37709355E+000  -2.32800191E-007    4172.77  <-- SCF
------------------------------------------------------------------------ <-- SCF
 
Integrated Spin Density     =    0.586699E-01 hbar/2
Integrated |Spin Density|   =    0.135500     hbar/2
 
Final energy, E             =  -271380.5959119     eV
Final free energy (E-TS)    =  -271385.1647502     eV
(energies not corrected for finite basis set)
 
NB est. 0K energy (E-0.5TS)      =  -271382.8803311     eV
 

Writing analysis data to castep.castep_bin

Writing model to castep.check
 
+---------------- MEMORY AND SCRATCH DISK ESTIMATES PER PROCESS --------------+
|                                                     Memory          Disk    |
| Model and support data                              360.0 MB         0.0 MB |
| Electronic energy minimisation requirements          97.8 MB         0.0 MB |
| Geometry minimisation requirements                  126.4 MB         0.0 MB |
|                                               ----------------------------- |
| Approx. total storage required per process          584.2 MB         0.0 MB |
|                                                                             |
| Requirements will fluctuate during execution and may exceed these estimates |
+-----------------------------------------------------------------------------+
 
 
 ************************************** Forces **************************************
 *                                                                                  *
 *                           Cartesian components (eV/A)                            *
 * -------------------------------------------------------------------------------- *
 *                         x                    y                    z              *
 *                                                                                  *
 * Al              1     -0.10821             -0.00218             -0.02645         *
 * Al              2      0.03525             -0.03733             -0.01146         *
 * Al              3     -0.04492             -0.00582             -0.00954         *
 * Al              4      0.05481             -0.00089              0.00907         *
 * Al              5     -0.11563             -0.03000             -0.06692         *
 * Al              6      0.09381              0.02128              0.01056         *
 * Al              7     -0.14843              0.05320             -0.02888         *
 * Al              8      0.06239              0.01729             -0.02445         *
 * Al              9     -0.04910              0.00705              0.00507         *
 * Al             10      0.04076              0.01434             -0.02663         *
 * Al             11     -0.08259             -0.02376             -0.01757         *
 * Al             12      0.08949              0.00042             -0.01403         *
 * Al             13      0.15450             -0.02312             -0.04703         *
 * Al             14      0.04404             -0.03820             -0.03654         *
 * Al             15     -0.00176              0.02694             -0.12337         *
 * Al             16      0.07600              0.01547             -0.02910         *
 * Al             17     -0.16719             -0.02154              0.00821         *
 * Al             18      0.04883              0.01543              0.00289         *
 * Al             19     -0.09959             -0.02627              0.02039         *
 * Al             20      0.06092              0.01411             -0.01187         *
 * Al             21     -0.03229             -0.00517              0.09875         *
 * Al             22      0.10057             -0.01213             -0.00253         *
 * Al             23      0.01778              0.02206              0.13219         *
 * Al             24      0.02306             -0.00470             -0.01507         *
 * Al             25     -0.11135             -0.06238             -0.00743         *
 * Al             26     -0.00446             -0.02007              0.01078         *
 * Al             27     -0.11503              0.00818             -0.00047         *
 * Al             28      0.06398              0.02434             -0.00643         *
 * Al             29     -0.14580              0.04925              0.00128         *
 * Al             30      0.04641             -0.00093              0.01333         *
 * Al             31     -0.17763              0.01979              0.01370         *
 * Al             32      0.08792             -0.02707              0.03285         *
 * Al             33      0.13318              0.10578              0.11912         *
 * Al             34      0.30142              0.19368              0.28427         *
 * Al             35     -0.03413              0.00035             -0.08219         *
 * Al             36      0.14678              0.01925              0.24888         *
 * Al             37     -0.04512             -0.28904             -0.05736         *
 * Al             38      0.05595              0.05702              0.26594         *
 * Al             39     -0.48556             -0.29659              0.59257         *
 * Al             40      0.13814             -0.18503             -0.02632         *
 * Al             41     -0.75111             -0.02109              0.61526         *
 * Al             42      0.20922              0.28976             -0.09908         *
 * Al             43     -0.00934             -0.12867             -0.08578         *
 * Al             44      0.14410             -0.18149             -0.19673         *
 * Al             45     -0.03589              0.02882              0.18954         *
 * Al             46     -0.15289              0.07952             -0.11828         *
 * Al             47     -0.64687             -0.09195              0.02902         *
 * Al             48     -0.22802             -0.04758             -0.01763         *
 * Al             49      0.00927              0.19051              0.16211         *
 * Al             50     -0.31150              0.06834             -0.06094         *
 * Al             51     -0.52310             -0.07483             -0.66194         *
 * Al             52     -0.09069             -0.12469              0.08090         *
 * Al             53     -0.59538             -0.01266             -0.64753         *
 * Al             54      0.12211             -0.08124             -0.15403         *
 * Al             55      0.02553              0.30382              0.06305         *
 * Al             56      0.28115             -0.08409              0.01330         *
 * Al             57     -0.26039             -0.19146             -0.11824         *
 * Al             58     -0.09988              0.02331              0.13701         *
 * Al             59      0.02269             -0.15784             -0.19562         *
 * Al             60     -0.14764             -0.05305             -0.16658         *
 * Al             61      0.01544              0.05182              0.02317         *
 * Al             62     -0.16913             -0.02310              0.24807         *
 * Al             63     -0.18289              0.11775             -0.14042         *
 * Ni              1      0.03975             -0.02628             -0.07310         *
 * Ni              2      0.01038             -0.01282              0.00968         *
 * Ni              3      0.03369              0.01796             -0.00859         *
 * Ni              4      0.10114             -0.02080             -0.01248         *
 * Ni              5      0.14323             -0.06665             -0.07695         *
 * Ni              6      0.07363              0.02568             -0.08231         *
 * Ni              7      0.02842              0.01338              0.10524         *
 * Ni              8      0.09906             -0.01396             -0.01011         *
 * Ni              9     -0.02480              0.01696              0.02233         *
 * Ni             10      0.01427              0.00426              0.03259         *
 * Ni             11      0.28365             -0.05487             -0.08861         *
 * Ni             12      0.09081              0.14540             -0.08535         *
 * Ni             13      0.14424             -0.04238              0.16148         *
 * Ni             14     -0.01975              0.00975              0.00172         *
 * Ni             15     -0.07252             -0.02173              0.02433         *
 * Ni             16     -0.01452              0.01839             -0.01491         *
 * Ni             17      0.08113              0.17155              0.01364         *
 * Ni             18      0.10442             -0.00031             -0.14856         *
 * Ni             19      0.00826             -0.02548              0.09785         *
 * Ni             20      0.06527              0.02086              0.00229         *
 * Ni             21     -0.00539             -0.00420             -0.00905         *
 * Ni             22      0.03374              0.00686             -0.01907         *
 * Ni             23      0.19446             -0.03026             -0.05197         *
 * Ni             24      0.04591             -0.16047             -0.13603         *
 * Ni             25      0.14466              0.03917              0.00476         *
 * Ni             26      0.10794              0.04974              0.00328         *
 * Ni             27      0.01973              0.00147             -0.00778         *
 * Ni             28      0.02567              0.02103             -0.05309         *
 * Ni             29      0.11270              0.04754              0.00229         *
 * Ni             30      0.19674             -0.09461             -0.12305         *
 * Ni             31      0.23944              0.14908             -0.05352         *
 * Ni             32      0.06562             -0.03810              0.01498         *
 * Ni             33     -0.03083              0.04881             -0.00692         *
 * Ni             34     -0.01348             -0.06266             -0.03179         *
 * Ni             35      0.19912              0.00156             -0.00274         *
 * Ni             36      0.24082              0.12267              0.06377         *
 * Ni             37      0.22297              0.02045             -0.05493         *
 * Ni             38      0.05128             -0.01109              0.00604         *
 * Ni             39     -0.09565             -0.01952              0.01888         *
 * Ni             40     -0.01092             -0.03069             -0.02016         *
 * Ni             41      0.39982              0.00788             -0.04520         *
 * Ni             42      0.22790              0.08117             -0.06193         *
 * Ni             43      0.09827             -0.13475              0.00122         *
 * Ni             44      0.10454              0.00605             -0.00553         *
 * Ni             45     -0.02748             -0.01614              0.02124         *
 * Ni             46      0.02497              0.06760             -0.00968         *
 * Ni             47     -0.07974              0.12810              0.09928         *
 * Ni             48     -0.03398             -0.16485             -0.10789         *
 * Ni             49      0.14658             -0.05599              0.06925         *
 * Ni             50      0.03647             -0.02656              0.00037         *
 * Ni             51      0.04730              0.00080              0.00291         *
 * Ni             52      0.06915             -0.00893              0.00443         *
 * Ni             53     -0.06146             -0.23131             -0.07686         *
 * Ni             54     -0.12273             -0.05024             -0.21085         *
 * Ni             55      0.12193              0.06015             -0.12798         *
 * Ni             56      0.03188              0.02346             -0.01272         *
 * Ni             57     -0.04354              0.01384             -0.01258         *
 * Ni             58     -0.01589              0.02449             -0.02904         *
 * Ni             59     -0.04549              0.18922             -0.00165         *
 * Ni             60      0.10821             -0.14390             -0.05137         *
 * Ni             61      0.09259              0.05325             -0.16172         *
 * Ni             62      0.00437             -0.01065             -0.00010         *
 * Ni             63     -0.09929             -0.00093             -0.04296         *
 * Ni             64     -0.03321              0.01159              0.01265         *
 * Ni             65      0.01118             -0.10871              0.07979         *
 * Ni             66      0.14396              0.02737             -0.03790         *
 * Ni             67      0.09369             -0.06952             -0.11422         *
 * Ni             68      0.00576              0.00236             -0.00293         *
 * Ni             69     -0.03782             -0.02354             -0.02006         *
 * Ni             70      0.00186             -0.03578             -0.00213         *
 * Ni             71     -0.21316              0.02282             -0.48822         *
 * Ni             72     -0.05566             -0.05318              0.11809         *
 * Ni             73      0.10844              0.00540              0.04516         *
 * Ni             74      0.03209              0.00639             -0.00251         *
 * Ni             75      0.04834             -0.00620              0.00546         *
 * Ni             76     -0.00048             -0.02526              0.04745         *
 * Ni             77      0.06569             -0.08518             -0.12530         *
 * Ni             78     -0.15680              0.01169              0.18802         *
 * Ni             79      0.12588             -0.04911              0.10268         *
 * Ni             80      0.03140              0.02250              0.01511         *
 * Ni             81     -0.00327              0.03002              0.00072         *
 * Ni             82     -0.00037             -0.00737             -0.00293         *
 * Ni             83     -0.01147             -0.04032             -0.17923         *
 * Ni             84     -0.03958             -0.01509             -0.15101         *
 * Ni             85      0.12660             -0.01433              0.05082         *
 * Ni             86      0.00241              0.00725             -0.00193         *
 * Ni             87     -0.01469             -0.01105              0.00140         *
 * Ni             88     -0.05305              0.02254              0.02491         *
 * Ni             89      0.09461              0.12585             -0.18125         *
 * Ni             90     -0.25560             -0.36456             -0.14887         *
 * Ni             91      0.13301              0.06026             -0.01186         *
 * Ni             92      0.01443             -0.03634              0.01001         *
 * Ni             93     -0.00203             -0.00663             -0.02276         *
 * Ni             94      0.01198              0.01205              0.01591         *
 * Ni             95     -0.10720             -0.09520              0.09657         *
 * Ni             96     -0.33402              0.23641             -0.12084         *
 * Ni             97     -0.18064              0.33693              0.12484         *
 * Ni             98      0.02561             -0.14313              0.17800         *
 * Ni             99      0.05169              0.29482              0.17160         *
 * Ni            100      0.08020              0.19286              0.20179         *
 * Ni            101     -0.23046              0.01188             -0.03983         *
 * Ni            102      0.07859             -0.23356              0.03842         *
 * Ni            103      0.09465             -0.03211              0.01352         *
 * Ni            104      0.24240             -0.28489              0.51146         *
 * Ni            105      0.20512             -0.21611              0.09011         *
 * Ni            106     -0.22748              0.11069              0.14356         *
 * Ni            107     -0.06776             -0.09524             -0.20107         *
 * Ni            108      0.04853             -0.05535             -0.00820         *
 * Ni            109     -0.03133             -0.00134             -0.05468         *
 * Ni            110     -0.16463             -0.11680              0.15553         *
 * Ni            111     -0.19513              0.14745             -0.20101         *
 * Ni            112      0.02721             -0.16867             -0.04085         *
 * Ni            113      0.27934              0.06884              0.03863         *
 * Ni            114      0.08153              0.09811              0.04842         *
 * Ni            115     -0.10056             -0.00059              0.14931         *
 * Ni            116      0.11403              0.25528              0.18129         *
 * Ni            117      0.06819              0.05126              0.11468         *
 * Ni            118      0.13315              0.03806              0.13511         *
 * Ni            119      0.16239              0.09515              0.02706         *
 * Ni            120     -0.03808              0.04793             -0.27829         *
 * Ni            121     -0.10355             -0.09462              0.24506         *
 * Ni            122     -0.17329             -0.04516              0.15382         *
 * Ni            123     -0.02330              0.16890             -0.14181         *
 * Ni            124      0.08657              0.03806             -0.03765         *
 * Ni            125      0.18964              0.28683             -0.07353         *
 * Ni            126     -0.23895             -0.11995              0.10284         *
 * Ni            127     -0.10359             -0.05158             -0.13428         *
 * Ni            128     -0.20495             -0.07168             -0.00963         *
 * Ni            129     -0.03918              0.14657             -0.07500         *
 * Ni            130     -0.04867             -0.23449             -0.15681         *
 * Ni            131     -0.08333             -0.17841              0.08380         *
 * Ni            132      0.21048             -0.02011              0.03889         *
 * Ni            133      0.12950              0.00541             -0.11566         *
 * Ni            134      0.12688              0.01418             -0.07231         *
 * Ni            135     -0.18638              0.08138              0.24011         *
 * Ni            136     -0.16695              0.06339             -0.14113         *
 * Ni            137     -0.29358             -0.37204             -0.02930         *
 * Ni            138      0.13192              0.18199              0.07288         *
 * Ni            139     -0.16623             -0.01266             -0.08454         *
 * Ni            140      0.16267             -0.11395             -0.04257         *
 * Ni            141     -0.12642              0.06420              0.20295         *
 * Ni            142      0.16620              0.02154             -0.11701         *
 * Ni            143      0.31573              0.15170             -0.24331         *
 * Ni            144     -0.08631             -0.02901              0.05325         *
 * Ni            145      0.17040              0.04463             -0.11151         *
 * Ni            146     -0.31442             -0.10309              0.09702         *
 * Ni            147      0.00069             -0.01777              0.08056         *
 * Ni            148      0.24904              0.10645             -0.03834         *
 * Ni            149      0.15478             -0.05577             -0.16106         *
 * Ni            150      0.00376             -0.11009              0.25161         *
 * Ni            151     -0.33712             -0.05385              0.00648         *
 * Ni            152      0.01189             -0.02691             -0.08878         *
 * Ni            153     -0.00251              0.11193             -0.10178         *
 * Ni            154      0.18516              0.23791              0.03781         *
 * Ni            155      0.00401             -0.11274              0.06750         *
 * Ni            156     -0.04483             -0.14000             -0.27878         *
 * Ni            157      0.25083              0.06842             -0.22964         *
 * Ni            158     -0.19653              0.10523              0.23781         *
 * Ni            159     -0.15431             -0.03109              0.09352         *
 * Ni            160     -0.21785              0.23621              0.30992         *
 * Ni            161     -0.03998              0.07958              0.10821         *
 * Ni            162     -0.00232             -0.12954              0.09132         *
 * Ni            163      0.00022              0.09198              0.24828         *
 * Ni            164      0.29481             -0.12741             -0.05005         *
 * Ni            165     -0.31358              0.03871              0.15864         *
 * Ni            166     -0.11614             -0.00425             -0.01993         *
 * Ni            167     -0.07606             -0.14017              0.12910         *
 * Ni            168     -0.18529              0.15536              0.24572         *
 * Ni            169     -0.03438             -0.13177             -0.04065         *
 * Ni            170      0.04207              0.29260             -0.03224         *
 * Ni            171      0.26925              0.11530              0.30444         *
 * Ni            172      0.27265             -0.18786             -0.00973         *
 * Ni            173     -0.27536              0.25680             -0.06399         *
 * Ni            174     -0.06606              0.00661              0.08780         *
 * Ni            175      0.01916             -0.03928              0.00937         *
 * Ni            176      0.09080             -0.07663              0.26127         *
 * Ni            177      0.09470             -0.00011             -0.16210         *
 * Ni            178      0.07416              0.08490             -0.24254         *
 * Ni            179      0.32508             -0.08974              0.03132         *
 * Ni            180     -0.07293              0.12944             -0.06007         *
 * Ni            181     -0.10419             -0.07466             -0.01950         *
 * Ni            182     -0.17864             -0.16929             -0.08619         *
 * Ni            183      0.06049              0.11831              0.35987         *
 * Ni            184     -0.15283              0.13771              0.02936         *
 * Ni            185      0.15359             -0.04364              0.00614         *
 * Ni            186     -0.02408             -0.11460             -0.14508         *
 * Ni            187     -0.07499             -0.10267             -0.18330         *
 * Ni            188      0.05729              0.19460             -0.07949         *
 * Ni            189     -0.07066              0.11585              0.28089         *
 * Ni            190      0.12418             -0.00941             -0.21537         *
 * Ni            191     -0.05463              0.02165             -0.10056         *
 * Ni            192      0.08558              0.02265             -0.18410         *
 *                                                                                  *
 ************************************************************************************
 LBFGS: finished iteration     0 with enthalpy= -2.71385165E+005 eV
  
 +-----------+-----------------+-----------------+------------+-----+ <-- LBFGS
 | Parameter |      value      |    tolerance    |    units   | OK? | <-- LBFGS
 +-----------+-----------------+-----------------+------------+-----+ <-- LBFGS
 |  dE/ion   |   0.000000E+000 |   2.000000E-005 |         eV | No  | <-- LBFGS
 |  |F|max   |   9.711584E-001 |   5.000000E-002 |       eV/A | No  | <-- LBFGS
 |  |dR|max  |   0.000000E+000 |   1.000000E-003 |          A | No  | <-- LBFGS
 +-----------+-----------------+-----------------+------------+-----+ <-- LBFGS
  

================================================================================
 Starting LBFGS iteration          1 ...
================================================================================
  
 +------------+-------------+-------------+-----------------+ <-- min LBFGS
 |    Step    |   lambda    |   F.delta'  |    enthalpy     | <-- min LBFGS
 +------------+-------------+-------------+-----------------+ <-- min LBFGS
 |  previous  |    0.000000 |    2.052194 |  -271385.164750 | <-- min LBFGS
 +------------+-------------+-------------+-----------------+ <-- min LBFGS
  

--------------------------------------------------------------------------------
 LBFGS: starting iteration         1 with trial guess (lambda=  1.000000)
--------------------------------------------------------------------------------
 
                           -------------------------------
                                     Cell Contents
                           -------------------------------
 
            xxxxxxxxxxxxxxxxxxxxxxxxxxxxxxxxxxxxxxxxxxxxxxxxxxxxxxxxxxxxxxxxx
            x  Element         Atom        Fractional coordinates of atoms  x
            x                 Number           u          v          w      x
            x---------------------------------------------------------------x
            x  Al                1         0.569958   0.062057   0.316577   x
            x  Al                2         0.817897   0.062828   0.314942   x
            x  Al                3         0.570171   0.313507   0.316219   x
            x  Al                4         0.817959   0.312229   0.314867   x
            x  Al                5         0.575147   0.563841   0.310860   x
            x  Al                6         0.819440   0.562226   0.313675   x
            x  Al                7         0.571105   0.811235   0.315670   x
            x  Al                8         0.819356   0.812938   0.314004   x
            x  Al                9         0.569146   0.060629   0.562884   x
            x  Al               10         0.817428   0.062639   0.564699   x
            x  Al               11         0.569444   0.314622   0.562651   x
            x  Al               12         0.817329   0.312524   0.564787   x
            x  Al               13         0.577714   0.564867   0.564911   x
            x  Al               14         0.819146   0.562286   0.564891   x
            x  Al               15         0.573316   0.810066   0.560570   x
            x  Al               16         0.819256   0.812584   0.564592   x
            x  Al               17         0.571788   0.060545   0.813225   x
            x  Al               18         0.816643   0.063325   0.814355   x
            x  Al               19         0.569574   0.313699   0.813473   x
            x  Al               20         0.816526   0.311944   0.814626   x
            x  Al               21         0.574553   0.563101   0.818292   x
            x  Al               22         0.818895   0.561751   0.815801   x
            x  Al               23         0.576359   0.811146   0.820106   x
            x  Al               24         0.819023   0.812750   0.815317   x
            x  Al               25         0.571130   0.062315   0.066382   x
            x  Al               26         0.817176   0.063439   0.065145   x
            x  Al               27         0.568836   0.312740   0.067047   x
            x  Al               28         0.817332   0.311733   0.064860   x
            x  Al               29         0.570344   0.562181   0.065626   x
            x  Al               30         0.819326   0.561608   0.064898   x
            x  Al               31         0.571572   0.812040   0.064559   x
            x  Al               32         0.819454   0.813201   0.065424   x
            x  Al               33         0.328575   0.935962   0.187136   x
            x  Al               34         0.056481   0.811236   0.059388   x
            x  Al               35         0.192983   0.943468   0.057188   x
            x  Al               36         0.321539   0.687936   0.192104   x
            x  Al               37         0.192967   0.683190   0.056410   x
            x  Al               38         0.317761   0.444267   0.194891   x
            x  Al               39         0.073984   0.442103   0.181009   x
            x  Al               40         0.198301   0.941741   0.823675   x
            x  Al               41         0.066904   0.559080   0.816857   x
            x  Al               42         0.325238   0.438337   0.940199   x
            x  Al               43         0.193423   0.421039   0.814113   x
            x  Al               44         0.330938   0.181908   0.936561   x
            x  Al               45         0.327462   0.309317   0.071796   x
            x  Al               46         0.190644   0.187140   0.807746   x
            x  Al               47         0.063265   0.189202   0.940167   x
            x  Al               48         0.317759   0.813361   0.563393   x
            x  Al               49         0.440145   0.810204   0.695868   x
            x  Al               50         0.186306   0.807283   0.436884   x
            x  Al               51         0.068091   0.938216   0.692629   x
            x  Al               52         0.433833   0.564401   0.688676   x
            x  Al               53         0.070662   0.698790   0.693408   x
            x  Al               54         0.200887   0.561520   0.682619   x
            x  Al               55         0.325661   0.322995   0.556636   x
            x  Al               56         0.329816   0.182824   0.687920   x
            x  Al               57         0.184725   0.178271   0.563162   x
            x  Al               58         0.187120   0.939599   0.309643   x
            x  Al               59         0.433698   0.563307   0.439869   x
            x  Al               60         0.191597   0.563867   0.439298   x
            x  Al               61         0.191039   0.180557   0.307513   x
            x  Al               62         0.192165   0.181298   0.074385   x
            x  Al               63         0.184291   0.321202   0.432684   x
            x  Ni                1         0.567497   0.187483   0.439648   x
            x  Ni                2         0.693603   0.062150   0.439922   x
            x  Ni                3         0.693452   0.187698   0.315716   x
            x  Ni                4         0.817551   0.187873   0.440042   x
            x  Ni                5         0.942064   0.063022   0.439787   x
            x  Ni                6         0.942219   0.187768   0.314737   x
            x  Ni                7         0.568260   0.442874   0.438033   x
            x  Ni                8         0.692680   0.313600   0.439745   x
            x  Ni                9         0.695009   0.437423   0.314259   x
            x  Ni               10         0.818775   0.437130   0.439534   x
            x  Ni               11         0.942303   0.312403   0.439759   x
            x  Ni               12         0.942649   0.436965   0.314317   x
            x  Ni               13         0.568073   0.683882   0.438218   x
            x  Ni               14         0.696603   0.563057   0.438451   x
            x  Ni               15         0.695908   0.687980   0.313607   x
            x  Ni               16         0.820006   0.687632   0.438963   x
            x  Ni               17         0.942662   0.562053   0.439380   x
            x  Ni               18         0.943243   0.687339   0.314014   x
            x  Ni               19         0.568260   0.936366   0.439148   x
            x  Ni               20         0.695162   0.811495   0.438510   x
            x  Ni               21         0.693867   0.937202   0.314770   x
            x  Ni               22         0.818509   0.937559   0.439440   x
            x  Ni               23         0.943001   0.812746   0.439384   x
            x  Ni               24         0.942782   0.938176   0.314489   x
            x  Ni               25         0.449136   0.186155   0.812414   x
            x  Ni               26         0.691911   0.061600   0.688249   x
            x  Ni               27         0.692299   0.187707   0.564125   x
            x  Ni               28         0.816503   0.187729   0.689411   x
            x  Ni               29         0.941688   0.063122   0.689857   x
            x  Ni               30         0.941780   0.187803   0.564905   x
            x  Ni               31         0.567372   0.441934   0.689935   x
            x  Ni               32         0.691451   0.313319   0.688815   x
            x  Ni               33         0.694308   0.437846   0.564514   x
            x  Ni               34         0.817995   0.437006   0.690103   x
            x  Ni               35         0.941823   0.312327   0.689993   x
            x  Ni               36         0.942335   0.437163   0.564944   x
            x  Ni               37         0.567546   0.687166   0.691248   x
            x  Ni               38         0.695466   0.563333   0.690964   x
            x  Ni               39         0.696673   0.687996   0.564511   x
            x  Ni               40         0.819737   0.687561   0.690357   x
            x  Ni               41         0.942573   0.561949   0.690271   x
            x  Ni               42         0.942874   0.687266   0.564771   x
            x  Ni               43         0.568266   0.932540   0.689249   x
            x  Ni               44         0.694313   0.811233   0.689919   x
            x  Ni               45         0.694117   0.936407   0.564171   x
            x  Ni               46         0.818135   0.937553   0.689526   x
            x  Ni               47         0.942921   0.812768   0.690118   x
            x  Ni               48         0.942328   0.937935   0.564720   x
            x  Ni               49         0.567792   0.187678   0.939670   x
            x  Ni               50         0.692845   0.063047   0.939995   x
            x  Ni               51         0.691227   0.187705   0.813639   x
            x  Ni               52         0.816667   0.187775   0.939626   x
            x  Ni               53         0.941997   0.063461   0.939644   x
            x  Ni               54         0.941569   0.187810   0.814682   x
            x  Ni               55         0.567319   0.437356   0.941087   x
            x  Ni               56         0.691771   0.312197   0.940142   x
            x  Ni               57         0.693736   0.437062   0.815364   x
            x  Ni               58         0.818046   0.436234   0.940274   x
            x  Ni               59         0.942048   0.312049   0.939665   x
            x  Ni               60         0.942180   0.436694   0.815128   x
            x  Ni               61         0.569873   0.686683   0.941949   x
            x  Ni               62         0.695145   0.561674   0.941765   x
            x  Ni               63         0.696450   0.687087   0.816232   x
            x  Ni               64         0.819734   0.687139   0.940826   x
            x  Ni               65         0.942962   0.561656   0.940078   x
            x  Ni               66         0.942990   0.687287   0.815371   x
            x  Ni               67         0.570370   0.936809   0.940696   x
            x  Ni               68         0.696630   0.812470   0.941806   x
            x  Ni               69         0.695132   0.937413   0.814758   x
            x  Ni               70         0.818478   0.938677   0.940348   x
            x  Ni               71         0.942897   0.813000   0.939955   x
            x  Ni               72         0.942021   0.938327   0.814928   x
            x  Ni               73         0.567619   0.187833   0.192890   x
            x  Ni               74         0.692819   0.062555   0.191056   x
            x  Ni               75         0.691916   0.187850   0.065646   x
            x  Ni               76         0.817493   0.187578   0.190026   x
            x  Ni               77         0.942499   0.063269   0.189592   x
            x  Ni               78         0.942075   0.187727   0.064606   x
            x  Ni               79         0.567916   0.438246   0.190776   x
            x  Ni               80         0.692971   0.312378   0.190564   x
            x  Ni               81         0.693331   0.436494   0.065311   x
            x  Ni               82         0.818662   0.436530   0.189294   x
            x  Ni               83         0.942479   0.312089   0.189541   x
            x  Ni               84         0.942823   0.436501   0.064582   x
            x  Ni               85         0.568864   0.688000   0.188860   x
            x  Ni               86         0.695647   0.562361   0.188407   x
            x  Ni               87         0.695374   0.687361   0.065415   x
[...]
            Ni 159 -- Ni 167                 0.10        -0.00          2.58707
            Ni 112 -- Ni 113                 0.01        -0.00          2.58741
            Ni 116 -- Ni 118                 0.02         0.00          2.58772
             Al 51 -- Ni 142                 0.18         0.00          2.58779
             Al 3  -- Ni 108                 0.16        -0.00          2.58782
             Al 25 -- Ni 73                  0.20        -0.00          2.58787
             Al 38 -- Ni 181                 0.19         0.00          2.58788
             Al 5  -- Ni 115                 0.16        -0.00          2.58789
            Ni 106 -- Ni 133                 0.01         0.00          2.58836
             Al 15 -- Ni 37                  0.20         0.00          2.58844
            Ni 114 -- Ni 135                 0.05        -0.00          2.58847
             Al 33 -- Ni 169                 0.19        -0.00          2.58848
             Al 36 -- Ni 188                 0.19         0.00          2.58860
             Al 16 -- Ni 40                  0.19         0.00          2.58868
            Ni 90  -- Ni 95                  0.01        -0.00          2.58871
             Al 60 -- Ni 140                 0.15        -0.00          2.58872
            Ni 110 -- Ni 112                 0.07         0.00          2.58893
             Al 17 -- Ni 43                  0.20        -0.00          2.58905
            Ni 29  -- Ni 48                  0.02         0.00          2.58910
            Ni 37  -- Ni 38                  0.08        -0.00          2.58917
             Al 23 -- Ni 165                 0.19         0.00          2.58922
             Al 60 -- Ni 112                 0.15        -0.00          2.58923
            Ni 151 -- Ni 174                -0.05        -0.00          2.58930
            Ni 67  -- Ni 165                 0.03        -0.00          2.58959
            Ni 104 -- Ni 109                 0.03        -0.00          2.58966
            Ni 131 -- Ni 133                 0.03         0.00          2.58981
            Ni 25  -- Ni 147                 0.08         0.00          2.59010
             Al 19 -- Ni 49                  0.20         0.00          2.59034
            Ni 126 -- Ni 134                 0.04        -0.00          2.59054
             Al 22 -- Ni 62                  0.20        -0.00          2.59070
            Ni 1   -- Ni 101                 0.03        -0.00          2.59091
             Al 48 -- Ni 120                 0.20        -0.00          2.59106
            Ni 155 -- Ni 156                 0.06         0.00          2.59107
             Al 21 -- Ni 37                  0.20        -0.00          2.59131
            Ni 37  -- Ni 139                -0.01        -0.00          2.59147
             Al 40 -- Ni 124                 0.19        -0.00          2.59161
            Ni 142 -- Ni 143                 0.05         0.00          2.59162
            Ni 183 -- Ni 185                 0.07        -0.00          2.59173
             Al 14 -- Ni 16                  0.19        -0.00          2.59177
            Ni 55  -- Ni 181                 0.07        -0.00          2.59199
             Al 24 -- Ni 46                  0.19         0.00          2.59203
            Ni 13  -- Ni 120                 0.04        -0.00          2.59227
             Al 48 -- Ni 141                 0.18         0.00          2.59239
             Al 63 -- Ni 97                  0.15        -0.00          2.59265
            Ni 100 -- Ni 128                 0.07        -0.00          2.59272
            Ni 13  -- Ni 39                  0.02        -0.00          2.59307
            Ni 71  -- Ni 96                  0.01         0.00          2.59345
            Ni 121 -- Ni 191                -0.00        -0.00          2.59365
             Al 51 -- Ni 124                 0.20        -0.00          2.59383
            Ni 138 -- Ni 139                -0.00         0.00          2.59404
             Al 38 -- Ni 188                 0.17         0.00          2.59413
            Ni 128 -- Ni 144                 0.14         0.00          2.59431
             Al 45 -- Ni 150                 0.16        -0.00          2.59450
             Al 19 -- Ni 31                  0.20         0.00          2.59463
             Al 9  -- Ni 127                 0.19        -0.00          2.59494
             Al 15 -- Ni 44                  0.20         0.00          2.59526
            Ni 150 -- Ni 178                 0.08        -0.00          2.59530
             Al 19 -- Ni 151                 0.20        -0.00          2.59542
            Ni 1   -- Ni 107                 0.01         0.00          2.59547
            Ni 159 -- Ni 160                 0.10        -0.00          2.59560
            Ni 104 -- Ni 105                 0.04         0.00          2.59565
            Ni 99  -- Ni 169                 0.01         0.00          2.59574
            Ni 25  -- Ni 151                -0.01        -0.00          2.59577
             Al 40 -- Ni 145                 0.17        -0.00          2.59579
             Al 34 -- Ni 162                 0.16        -0.00          2.59600
             Al 23 -- Ni 37                  0.20        -0.00          2.59617
            Ni 102 -- Ni 172                 0.04        -0.00          2.59631
            Ni 101 -- Ni 144                 0.10         0.00          2.59642
            Ni 102 -- Ni 108                 0.17        -0.00          2.59671
             Al 63 -- Ni 100                 0.22         0.00          2.59776
            Ni 100 -- Ni 107                 0.04         0.00          2.59802
            Ni 68  -- Ni 69                  0.02        -0.00          2.59804
            Ni 138 -- Ni 160                 0.05         0.00          2.59880
            Ni 129 -- Ni 132                 0.13         0.00          2.59949
             Al 36 -- Ni 190                 0.17         0.00          2.59975
             Al 21 -- Ni 159                 0.16        -0.00          2.59984
            Ni 41  -- Ni 66                 -0.03        -0.00          2.59985
            Ni 152 -- Ni 153                 0.12         0.00          2.60017
            Ni 37  -- Ni 39                  0.02        -0.00          2.60082
            Ni 95  -- Ni 96                  0.01        -0.00          2.60125
            Ni 152 -- Ni 160                 0.03         0.00          2.60191
            Ni 7   -- Ni 8                   0.06         0.00          2.60207
            Ni 123 -- Ni 124                 0.01         0.00          2.60208
            Ni 111 -- Ni 186                 0.07         0.00          2.60224
             Al 15 -- Ni 139                 0.17        -0.00          2.60227
            Ni 25  -- Ni 135                -0.00        -0.00          2.60232
            Ni 59  -- Ni 78                 -0.01        -0.00          2.60254
            Ni 169 -- Ni 171                -0.00         0.00          2.60323
            Ni 117 -- Ni 191                 0.08         0.00          2.60341
            Ni 112 -- Ni 122                 0.11         0.00          2.60356
             Al 59 -- Ni 139                 0.17         0.00          2.60362
            Ni 161 -- Ni 162                -0.00        -0.00          2.60380
            Ni 60  -- Ni 65                  0.01         0.00          2.60405
            Ni 100 -- Ni 180                 0.10         0.00          2.60417
             Al 43 -- Ni 150                 0.18         0.00          2.60423
            Ni 41  -- Ni 42                  0.03         0.00          2.60454
            Ni 108 -- Ni 111                 0.12        -0.00          2.60474
            Ni 25  -- Ni 146                -0.01        -0.00          2.60503
             Al 50 -- Ni 142                 0.15        -0.00          2.60534
             Al 3  -- Ni 180                 0.16        -0.00          2.60535
             Al 17 -- Ni 134                 0.18        -0.00          2.60552
             Al 19 -- Ni 134                 0.19        -0.00          2.60573
             Al 9  -- Ni 144                 0.18        -0.00          2.60595
             Al 59 -- Ni 7                   0.20        -0.00          2.60597
             Al 38 -- Ni 177                 0.16         0.00          2.60682
             Al 61 -- Ni 100                 0.18         0.00          2.60705
            Ni 53  -- Ni 54                 -0.00        -0.00          2.60706
            Ni 117 -- Ni 122                 0.03         0.00          2.60723
             Al 55 -- Ni 130                 0.17         0.00          2.60733
             Al 51 -- Ni 163                 0.17        -0.00          2.60765
            Ni 178 -- Ni 185                 0.08         0.00          2.60766
            Ni 146 -- Ni 174                 0.01        -0.00          2.60767
            Ni 156 -- Ni 167                 0.11        -0.00          2.60789
            Ni 71  -- Ni 90                  0.02        -0.00          2.60814
            Ni 155 -- Ni 157                 0.07         0.00          2.60829
             Al 17 -- Ni 49                  0.18        -0.00          2.60850
             Al 58 -- Ni 122                 0.18        -0.00          2.60853
             Al 38 -- Ni 178                 0.17         0.00          2.60866
            Ni 102 -- Ni 109                 0.07        -0.00          2.60868
            Ni 172 -- Ni 177                -0.01        -0.00          2.60872
             Al 50 -- Ni 117                 0.16        -0.00          2.60886
             Al 41 -- Ni 129                 0.19        -0.00          2.60912
             Al 46 -- Ni 153                 0.13         0.00          2.60914
            Ni 158 -- Ni 181                -0.01        -0.00          2.60926
             Al 61 -- Ni 102                 0.14        -0.00          2.60945
            Ni 147 -- Ni 170                -0.03        -0.00          2.60962
            Ni 170 -- Ni 171                -0.02        -0.00          2.60972
            Ni 47  -- Ni 163                 0.06        -0.00          2.60992
            Ni 54  -- Ni 59                  0.00        -0.00          2.61155
             Al 58 -- Ni 117                 0.15        -0.00          2.61217
            Ni 25  -- Ni 126                -0.01         0.00          2.61218
            Ni 158 -- Ni 160                 0.11        -0.00          2.61226
            Ni 121 -- Ni 173                 0.01         0.00          2.61247
            Ni 53  -- Ni 78                  0.00        -0.00          2.61247
             Al 58 -- Ni 119                 0.17         0.00          2.61266
            Ni 13  -- Ni 20                  0.04        -0.00          2.61267
            Ni 26  -- Ni 43                  0.07        -0.00          2.61330
            Ni 169 -- Ni 172                 0.00         0.00          2.61353
            Ni 151 -- Ni 152                 0.03        -0.00          2.61390
             Al 9  -- Ni 43                  0.19         0.00          2.61428
             Al 53 -- Ni 137                 0.17        -0.00          2.61444
             Al 36 -- Ni 184                 0.19        -0.00          2.61458
            Ni 143 -- Ni 167                 0.01         0.00          2.61508
             Al 55 -- Ni 127                 0.16         0.00          2.61519
            Ni 65  -- Ni 66                  0.02        -0.00          2.61630
            Ni 110 -- Ni 118                 0.05        -0.00          2.61731
            Ni 42  -- Ni 47                 -0.01        -0.00          2.61740
            Ni 178 -- Ni 179                 0.06         0.00          2.61754
            Ni 178 -- Ni 184                 0.02        -0.00          2.61809
            Ni 130 -- Ni 153                -0.01         0.00          2.61854
             Al 47 -- Ni 150                 0.19        -0.00          2.61895
             Al 40 -- Ni 143                 0.18         0.00          2.62008
             Al 35 -- Ni 122                 0.17         0.00          2.62114
             Al 36 -- Ni 122                 0.17        -0.00          2.62147
             Al 34 -- Ni 122                 0.16        -0.00          2.62335
            Ni 114 -- Ni 133                 0.02        -0.00          2.62366
            Ni 136 -- Ni 141                 0.01         0.00          2.62385
            Ni 173 -- Ni 192                -0.00        -0.00          2.62510
            Ni 168 -- Ni 177                 0.03         0.00          2.62528
            Ni 65  -- Ni 148                 0.04        -0.00          2.62546
            Ni 140 -- Ni 141                 0.07         0.00          2.62549
             Al 11 -- Ni 31                  0.18         0.00          2.62601
            Ni 115 -- Ni 117                 0.09        -0.00          2.62717
            Ni 170 -- Ni 175                -0.04        -0.00          2.62789
             Al 56 -- Ni 130                 0.18        -0.00          2.62789
             Al 49 -- Ni 139                 0.16        -0.00          2.62836
            Ni 127 -- Ni 135                -0.03         0.00          2.62959
            Ni 124 -- Ni 125                 0.03        -0.00          2.62960
             Al 61 -- Ni 104                 0.15        -0.00          2.62986
             Al 23 -- Ni 166                 0.14         0.00          2.63004
            Ni 150 -- Ni 153                -0.02        -0.00          2.63038
            Ni 156 -- Ni 157                 0.12        -0.00          2.63057
             Al 39 -- Ni 178                 0.18        -0.00          2.63252
             Al 37 -- Ni 190                 0.15         0.00          2.63252
            Ni 155 -- Ni 188                 0.03        -0.00          2.63315
            Ni 162 -- Ni 164                 0.01         0.00          2.63406
            Ni 154 -- Ni 155                 0.06         0.00          2.63689
             Al 38 -- Ni 182                 0.15         0.00          2.63807
             Al 48 -- Al 49                  0.27         0.00          2.63989
             Al 48 -- Al 50                  0.25        -0.00          2.64164
            Ni 156 -- Ni 162                 0.12        -0.00          2.64708
             Al 23 -- Ni 159                 0.13         0.00          2.64716
             Al 46 -- Ni 147                 0.11        -0.00          2.64756
             Al 43 -- Ni 155                 0.17         0.00          2.64845
            Ni 106 -- Ni 138                -0.02        -0.00          2.64920
             Al 35 -- Ni 189                 0.15        -0.00          2.64954
             Al 35 -- Ni 190                 0.13        -0.00          2.65014
            Ni 107 -- Ni 114                 0.13         0.00          2.65027
             Al 50 -- Al 58                  0.24         0.00          2.65042
             Al 33 -- Ni 122                 0.15         0.00          2.65111
             Al 52 -- Ni 37                  0.15         0.00          2.65367
             Al 13 -- Ni 139                 0.14        -0.00          2.65410
             Al 42 -- Ni 153                 0.17        -0.00          2.65668
            Ni 100 -- Ni 101                 0.08        -0.00          2.65838
             Al 37 -- Ni 122                 0.15        -0.00          2.65911
            Ni 126 -- Ni 127                 0.01         0.00          2.66043
             Al 52 -- Ni 31                  0.15         0.00          2.66312
             Al 38 -- Al 45                  0.24         0.00          2.66482
            Ni 129 -- Ni 130                 0.09         0.00          2.66533
             Al 50 -- Ni 119                 0.13         0.00          2.66649
             Al 23 -- Al 49                  0.24         0.00          2.67038
            Ni 148 -- Ni 150                 0.08         0.00          2.67062
             Al 42 -- Al 43                  0.24         0.00          2.67094
            Ni 161 -- Ni 170                 0.04         0.00          2.67284
            Ni 100 -- Ni 103                 0.10        -0.00          2.67466
             Al 56 -- Ni 124                 0.14         0.00          2.67743
             Al 59 -- Ni 13                  0.12         0.00          2.68452
            Ni 168 -- Ni 169                 0.02        -0.00          2.69061
             Al 43 -- Ni 160                 0.13        -0.00          2.69458
             Al 46 -- Al 56                  0.23        -0.00          2.69740
             Al 45 -- Al 62                  0.19         0.00          2.70840
            Ni 130 -- Ni 149                 0.01         0.00          2.70933
            Ni 149 -- Ni 150                -0.00        -0.00          2.71027
             Al 42 -- Al 45                  0.21        -0.00          2.71744
             Al 55 -- Al 63                  0.28         0.00          2.72141
            Ni 164 -- Ni 170                 0.04        -0.00          2.72217
             Al 61 -- Al 63                  0.18         0.00          2.72612
             Al 44 -- Al 45                  0.20        -0.00          2.72815
             Al 46 -- Al 47                  0.20        -0.00          2.72913
             Al 34 -- Al 35                  0.20         0.00          2.73008
             Al 36 -- Al 37                  0.21         0.00          2.73163
             Al 33 -- Al 58                  0.21        -0.00          2.73352
             Al 34 -- Al 37                  0.20        -0.00          2.74038
             Al 33 -- Al 35                  0.20         0.00          2.74985
             Al 21 -- Al 52                  0.20         0.00          2.76227
             Al 15 -- Al 49                  0.20         0.00          2.76579
             Al 5  -- Al 59                  0.17         0.00          2.76639
             Al 44 -- Al 46                  0.18        -0.00          2.76900
             Al 47 -- Al 62                  0.17        -0.00          2.77115
             Al 53 -- Al 54                  0.19         0.00          2.77581
             Al 40 -- Al 51                  0.20         0.00          2.77702
             Al 43 -- Al 54                  0.17         0.00          2.78520
             Al 42 -- Ni 150                 0.11         0.00          2.78711
             Al 13 -- Al 52                  0.19         0.00          2.78878
             Al 41 -- Al 43                  0.15         0.00          2.79341
             Al 57 -- Al 63                  0.14         0.00          2.80609
             Al 56 -- Al 57                  0.18        -0.00          2.80737
             Al 41 -- Al 53                  0.17        -0.00          2.80835
             Al 13 -- Al 59                  0.15        -0.00          2.81622
             Al 55 -- Al 56                  0.14        -0.00          2.83546
             Al 41 -- Al 54                  0.13         0.00          2.84867
             Al 44 -- Al 62                  0.11        -0.00          2.90376
================================================================================
 

Writing analysis data to castep.castep_bin

Writing model to castep.check
 
 A BibTeX formatted list of references used in this run has been written to 
 castep.bib
 
Initialisation time =     26.07 s
Calculation time    =  23443.96 s
Finalisation time   =     10.19 s
Total time          =  23480.22 s
Peak Memory Use     = 3973792 kB
 
Overall parallel efficiency rating: Satisfactory (65%)
 
Data was distributed by:-
G-vector (128-way); efficiency rating: Satisfactory (67%)
