 +-------------------------------------------------+
 |                                                 |
 |      CCC   AA    SSS  TTTTT  EEEEE  PPPP        |
 |     C     A  A  S       T    E      P   P       |
 |     C     AAAA   SS     T    EEE    PPPP        |
 |     C     A  A     S    T    E      P           |
 |      CCC  A  A  SSS     T    EEEEE  P           |
 |                                                 |
 +-------------------------------------------------+
 |                                                 |
 | Welcome to Academic Release CASTEP version 22.11|
 | Ab Initio Total Energy Program                  |
 |                                                 |
 | Authors:                                        |
 | M. Segall, M. Probert, C. Pickard, P. Hasnip,   |
 | S. Clark, K. Refson, J. R. Yates, M. Payne      |
 |                                                 |
 | Contributors:                                   |
 | P. Lindan, P. Haynes, J. White, V. Milman,      |
 | N. Govind, M. Gibson, P. Tulip, V. Cocula,      |
 | B. Montanari, D. Quigley, M. Glover,            |
 | L. Bernasconi, A. Perlov, M. Plummer,           |
 | E. McNellis, J. Meyer, J. Gale, D. Jochym       |
 | J. Aarons, B. Walker, R. Gillen, D. Jones       |
 | T. Green, I. J. Bush, C. J. Armstrong,          |
 | E. J. Higgins, E. L. Brown, M. S. McFly,        |
 | J. Wilkins, B-C. Shih, P. J. P. Byrne,          |
 | R. J. Maurer, J. C. Womack, J. Dziedzic,        |
 | A. Bartok-Partay, L. LeBlanc, T. K. Stenczel,   |
 | J. Kermode, S. Sturniolo, B. Shi, B. Durham     |
 | M. Evans, M. J. Smith                           |
 |                                                 |
 | Copyright (c) 2000 - 2021                       |
 |                                                 |
 |     Distributed under license from Cambridge    |
 |     Enterprise for academic use only.           |
 |                                                 |
 | Please cite                                     |
 |                                                 |
 |     "First principles methods using CASTEP"     |
 |                                                 |
 |         Zeitschrift fuer Kristallographie       |
 |           220(5-6) pp. 567-570 (2005)           |
 |                                                 |
 | S. J. Clark, M. D. Segall, C. J. Pickard,       |
 | P. J. Hasnip, M. J. Probert, K. Refson,         |
 | M. C. Payne                                     |
 |                                                 |
 |       in all publications arising from          |
 |              your use of CASTEP                 |
 |                                                 |
 +-------------------------------------------------+
 |                                                 |
 |              http://www.castep.org              |
 |                                                 |
 +-------------------------------------------------+
 
 
 
 Compiled for linux_x86_64_ifort on Wed, 18 Jan 2023 15:42:19 +0000
 from code version b807d1bba+  Castep221_branch  Wed Sep 14 11:18:35 2022 +0100
 Compiler: Intel Fortran 19.0.5.281; Optimisation: fast
 MATHLIBS: Intel MKL(2019.0.5) (LAPACK version 3.7.0)
 FFT Lib : mkl
 Fundamental constants values: CODATA 2014
 
 Run started: Wed, 26 Apr 2023 12:31:05 +0100
 
 Atomic calculation performed for Al: 1s2 2s2 2p6 3s2 3p1
 
 Converged in 52 iterations to an ae energy of -6606.982 eV
 
   ============================================================                
   | Pseudopotential Report - Date of generation 26-04-2023   |                
   ------------------------------------------------------------                
   | Element: Al Ionic charge:  3.00 Level of theory: RPBE    |                
   | Atomic Solver: Koelling-Harmon                           |                
   |                                                          |                
   |               Reference Electronic Structure             |                
   |         Orbital         Occupation         Energy        |                
   |            3s              2.000           -0.284        |                
   |            3p              1.000           -0.100        |                
   |                                                          |                
   |                 Pseudopotential Definition               |                
   |        Beta     l      e      Rc     scheme   norm       |                
   |          1      0   -0.284   2.192     qc      0         |                
   |          2      0    0.250   2.192     qc      0         |                
   |          3      1   -0.100   2.192     qc      0         |                
   |          4      1    0.250   2.192     qc      0         |                
   |          5      2    0.000   2.000     qc      0         |                
   |          6      2    0.250   2.000     qc      0         |                
   |         loc     3    0.000   2.192     pn      0         |                
   |                                                          |                
   | Augmentation charge Rinner = 1.398                       |                
   | Partial core correction Rc = 1.398                       |                
   ------------------------------------------------------------                
   | "3|2.2|2.2|1.4|4|5|5|30:31:32U2U2"                       |                
   ------------------------------------------------------------                
   |      Author: Chris J. Pickard, Cambridge University      |                
   ============================================================                
 
 Atomic calculation performed for Ni: 1s2 2s2 2p6 3s2 3p6 3d8 4s2
 
 Converged in 109 iterations to an ae energy of -41381.414 eV
 
   ============================================================                
   | Pseudopotential Report - Date of generation 26-04-2023   |                
   ------------------------------------------------------------                
   | Element: Ni Ionic charge: 10.00 Level of theory: RPBE    |                
   | Atomic Solver: Koelling-Harmon                           |                
   |                                                          |                
   |               Reference Electronic Structure             |                
   |         Orbital         Occupation         Energy        |                
   |            3d              8.000           -0.324        |                
   |            4s              2.000           -0.204        |                
   |                                                          |                
   |                 Pseudopotential Definition               |                
   |        Beta     l      e      Rc     scheme   norm       |                
   |          1      0   -0.204   2.401     qc      0         |                
   |          2      0    0.250   2.401     qc      0         |                
   |          3      1    0.000   2.401     qc      0         |                
   |          4      1    0.250   2.401     qc      0         |                
   |          5      2   -0.324   1.999     qc      0         |                
   |          6      2    0.250   1.999     qc      0         |                
   |         loc     3    0.000   2.401     pn      0         |                
   |                                                          |                
   | Augmentation charge Rinner = 1.001                       |                
   | Partial core correction Rc = 1.001                       |                
   ------------------------------------------------------------                
   | "3|2.4|2.4|1.0|8|9|10|40:41:32U2U2(qc=5.5)"              |                
   ------------------------------------------------------------                
   |      Author: Chris J. Pickard, Cambridge University      |                
   ============================================================                
 
 Pseudo atomic calculation performed for Al 3s2 3p1
 
 Converged in 13 iterations to a total energy of -107.6593 eV
 
 Pseudo atomic calculation performed for Ni 3d8 4s2
 
 Converged in 41 iterations to a total energy of -1369.7890 eV
 Calculation parallelised over 128 processes.
 Data is distributed by G-vector(128-way)

 ************************************ Title ************************************
 

 ***************************** General Parameters ******************************
  
 output verbosity                               : normal  (1)
 write checkpoint data to                       : castep.check
 type of calculation                            : geometry optimization
 stress calculation                             : off
 density difference calculation                 : off
 electron localisation func (ELF) calculation   : off
 Hirshfeld analysis                             : off
 polarisation (Berry phase) analysis            : off
 molecular orbital projected DOS                : off
 deltaSCF calculation                           : off
 unlimited duration calculation
 timing information                             : on
 memory usage estimate                          : on
 write extra output files                       : on
 write final potential to formatted file        : off
 write final density to formatted file          : off
 write BibTeX reference list                    : on
 write OTFG pseudopotential files               : on
 write electrostatic potential file             : on
 write bands file                               : on
 checkpoint writing                             : both castep_bin and check files
  
 output         length unit                     : A
 output           mass unit                     : amu
 output           time unit                     : ps
 output         charge unit                     : e
 output           spin unit                     : hbar/2
 output         energy unit                     : eV
 output          force unit                     : eV/A
 output       velocity unit                     : A/ps
 output       pressure unit                     : GPa
 output     inv_length unit                     : 1/A
 output      frequency unit                     : cm-1
 output force constant unit                     : eV/A**2
 output         volume unit                     : A**3
 output   IR intensity unit                     : (D/A)**2/amu
 output         dipole unit                     : D
 output         efield unit                     : eV/A/e
 output        entropy unit                     : J/mol/K
 output    efield chi2 unit                     : pm/V
  
 wavefunctions paging                           : none
 random number generator seed                   : randomised (123107487)
 data distribution                              : optimal for this architecture
 optimization strategy                          : maximize speed(+++)

 *********************** Exchange-Correlation Parameters ***********************
  
 using functional                               : revised Perdew Burke Ernzerhof
 relativistic treatment                         : Koelling-Harmon
 DFT+D: Semi-empirical dispersion correction    : off

 ************************* Pseudopotential Parameters **************************
  
 pseudopotential representation                 : reciprocal space
 <beta|phi> representation                      : reciprocal space
 spin-orbit coupling                            : off

 **************************** Basis Set Parameters *****************************
  
 plane wave basis set cut-off                   :   900.0000   eV
 size of standard grid                          :     1.7500
 size of   fine   gmax                          :    26.8966   1/A
 finite basis set correction                    : none

 **************************** Electronic Parameters ****************************
  
 number of  electrons                           :  2109.    
 net charge of system                           :  0.000    
 net spin   of system                           :  1.000    
 number of  up  spins                           :  1055.    
 number of down spins                           :  1054.    
 treating system as spin-polarized
 number of bands                                :       1167

 ********************* Electronic Minimization Parameters **********************
  
 Method: Treating system as metallic with density mixing treatment of electrons,
         and number of  SD  steps               :          1
         and number of  CG  steps               :          4
  
 total energy / atom convergence tol.           : 0.1000E-05   eV
 eigen-energy convergence tolerance             : 0.2185E-06   eV
 max force / atom convergence tol.              : ignored
 convergence tolerance window                   :          3   cycles
 max. number of SCF cycles                      :        200
 number of fixed-spin iterations                :         10
 smearing scheme                                : Gaussian
 smearing width                                 : 0.2000       eV
 Fermi energy convergence tolerance             : 0.2721E-13   eV
 periodic dipole correction                     : NONE
 periodically dump wavefunctions to             : castep.wvfn
 dump wavefunctions every                       :          1   SCF cycles

 ************************** Density Mixing Parameters **************************
  
 density-mixing scheme                          : Pulay
 max. length of mixing history                  :         20
 charge density mixing amplitude                : 0.8000    
   spin density mixing amplitude                :  2.000    
 cut-off energy for mixing                      :  900.0       eV

 *********************** Population Analysis Parameters ************************
  
 Population analysis with cutoff                :  3.000       A
 Population analysis output                     : summary and pdos components

 ********************** Geometry Optimization Parameters ***********************
  
 optimization method                            : LBFGS
 max. no. of LBFGS updates                      : unbounded
 variable cell method                           : fixed basis quality
 max. number of steps                           :         30
 estimated bulk modulus                         :  500.0       GPa
 estimated <frequency>                          :  1668.       cm-1
 geom line minimiser                            : on
 with line minimiser tolerance                  :     0.4000
  with spin fully able to relax for all steps
 total energy convergence tolerance             : 0.2000E-04   eV/atom
        max ionic |force| tolerance             : 0.5000E-01   eV/A
 max ionic |displacement| tolerance             : 0.1000E-02   A
   max |stress component| tolerance             : 0.1000       GPa
 convergence tolerance window                   :          2   steps
 backup results every                           :          5   steps
 write geom trajectory file                     : on

 *******************************************************************************
  
 
                           -------------------------------
                                      Unit Cell
                           -------------------------------
        Real Lattice(A)                      Reciprocal Lattice(1/A)
    14.4648280     0.0000000     0.0000000        0.434376773   0.000000000   0.000000000
     0.0000000    14.4648280     0.0000000        0.000000000   0.434376773   0.000000000
     0.0000000     0.0000000    14.4648280        0.000000000   0.000000000   0.434376773
 
                       Lattice parameters(A)       Cell Angles
                    a =     14.464828          alpha =   90.000000
                    b =     14.464828          beta  =   90.000000
                    c =     14.464828          gamma =   90.000000
 
                       Current cell volume =          3026.494030       A**3
                                   density =             4.285146   AMU/A**3
                                           =             7.115653     g/cm^3
 
                           -------------------------------
                                     Cell Contents
                           -------------------------------
                         Total number of ions in cell =  255
                      Total number of species in cell =    2
                        Max number of any one species =  192
 
            xxxxxxxxxxxxxxxxxxxxxxxxxxxxxxxxxxxxxxxxxxxxxxxxxxxxxxxxxxxx
            x  Element    Atom        Fractional coordinates of atoms  x
            x            Number           u          v          w      x
            x----------------------------------------------------------x
            x  Al           1         0.570704   0.307411   0.814008   x 
            x  Al           2         0.818247   0.309208   0.812756   x 
            x  Al           3         0.569889   0.559266   0.815377   x 
            x  Al           4         0.817592   0.558239   0.813195   x 
            x  Al           5         0.575313   0.809633   0.809882   x 
            x  Al           6         0.819096   0.807798   0.812326   x 
            x  Al           7         0.572249   0.058444   0.813007   x 
            x  Al           8         0.819964   0.059144   0.811978   x 
            x  Al           9         0.569608   0.305957   0.062228   x 
            x  Al          10         0.817808   0.308657   0.063476   x 
            x  Al          11         0.573352   0.554874   0.061429   x 
            x  Al          12         0.816691   0.558098   0.063515   x 
            x  Al          13         0.577333   0.814382   0.062682   x 
            x  Al          14         0.819188   0.808325   0.063094   x 
            x  Al          15         0.574365   0.057119   0.058908   x 
            x  Al          16         0.819965   0.058968   0.062901   x 
            x  Al          17         0.570287   0.306334   0.311673   x 
            x  Al          18         0.817075   0.309540   0.312894   x 
            x  Al          19         0.567346   0.559715   0.311046   x 
            x  Al          20         0.816089   0.558299   0.312632   x 
            x  Al          21         0.574656   0.809402   0.315779   x 
            x  Al          22         0.818572   0.807347   0.313563   x 
            x  Al          23         0.577136   0.057431   0.318822   x 
            x  Al          24         0.819623   0.058860   0.313714   x 
            x  Al          25         0.571633   0.308630   0.563528   x 
            x  Al          26         0.817116   0.310219   0.562759   x 
            x  Al          27         0.568938   0.558950   0.564414   x 
            x  Al          28         0.816562   0.557895   0.562591   x 
            x  Al          29         0.570704   0.808502   0.564018   x 
            x  Al          30         0.819223   0.807161   0.563080   x 
            x  Al          31         0.572557   0.057945   0.562647   x 
            x  Al          32         0.820032   0.059088   0.563516   x 
            x  Al          33         0.328675   0.182469   0.683952   x 
            x  Al          34         0.056309   0.057831   0.557581   x 
            x  Al          35         0.192985   0.190309   0.554626   x 
            x  Al          36         0.321476   0.935465   0.689207   x 
            x  Al          37         0.192685   0.929545   0.554600   x 
            x  Al          38         0.318583   0.689972   0.693810   x 
            x  Al          39         0.074757   0.687578   0.679136   x 
            x  Al          40         0.198678   0.188620   0.322250   x 
            x  Al          41         0.067331   0.805450   0.315474   x 
            x  Al          42         0.326103   0.684970   0.438500   x 
            x  Al          43         0.194380   0.667446   0.313212   x 
            x  Al          44         0.337254   0.428739   0.430325   x 
            x  Al          45         0.328543   0.555021   0.569535   x 
            x  Al          46         0.192230   0.432858   0.306421   x 
            x  Al          47         0.063814   0.435402   0.438079   x 
            x  Al          48         0.317536   0.060380   0.061862   x 
            x  Al          49         0.440419   0.057058   0.194602   x 
            x  Al          50         0.185863   0.054901   0.935126   x 
            x  Al          51         0.068504   0.185174   0.191359   x 
            x  Al          52         0.433475   0.814667   0.189336   x 
            x  Al          53         0.070941   0.945099   0.191920   x 
            x  Al          54         0.201473   0.808507   0.181728   x 
            x  Al          55         0.432146   0.677786   0.059855   x 
            x  Al          56         0.334541   0.430827   0.188817   x 
            x  Al          57         0.188508   0.425173   0.063059   x 
            x  Al          58         0.187105   0.186342   0.807230   x 
            x  Al          59         0.434353   0.816939   0.935051   x 
            x  Al          60         0.191722   0.811550   0.937427   x 
            x  Al          61         0.191589   0.426145   0.805267   x 
            x  Al          62         0.193527   0.427349   0.571029   x 
            x  Al          63         0.188910   0.565161   0.934070   x 
            x  Ni           1         0.568083   0.431579   0.937416   x 
            x  Ni           2         0.694189   0.307832   0.938157   x 
            x  Ni           3         0.693652   0.433456   0.813680   x 
            x  Ni           4         0.817441   0.433623   0.938630   x 
            x  Ni           5         0.942282   0.309351   0.938037   x 
            x  Ni           6         0.942026   0.434081   0.812845   x 
            x  Ni           7         0.564536   0.687879   0.941092   x 
            x  Ni           8         0.693033   0.558932   0.938123   x 
            x  Ni           9         0.693540   0.683085   0.813973   x 
            x  Ni          10         0.818573   0.683031   0.938123   x 
            x  Ni          11         0.941935   0.558343   0.938233   x 
            x  Ni          12         0.942517   0.682759   0.812728   x 
            x  Ni          13         0.569269   0.932614   0.935582   x 
            x  Ni          14         0.695879   0.808932   0.937003   x 
            x  Ni          15         0.696472   0.934209   0.811716   x 
            x  Ni          16         0.820189   0.933579   0.937132   x 
            x  Ni          17         0.942727   0.807885   0.937687   x 
            x  Ni          18         0.943292   0.933128   0.812285   x 
            x  Ni          19         0.569017   0.182489   0.937277   x 
            x  Ni          20         0.696291   0.058329   0.936467   x 
            x  Ni          21         0.694845   0.183633   0.812468   x 
            x  Ni          22         0.819210   0.183990   0.937604   x 
            x  Ni          23         0.943202   0.058864   0.937524   x 
            x  Ni          24         0.943037   0.184551   0.812510   x 
            x  Ni          25         0.562015   0.432035   0.190812   x 
            x  Ni          26         0.691778   0.307450   0.187565   x 
            x  Ni          27         0.692012   0.431826   0.064123   x 
            x  Ni          28         0.816722   0.433648   0.188263   x 
            x  Ni          29         0.942210   0.309353   0.188371   x 
            x  Ni          30         0.941757   0.433965   0.063367   x 
            x  Ni          31         0.563818   0.688617   0.183093   x 
            x  Ni          32         0.690684   0.558878   0.187670   x 
            x  Ni          33         0.693687   0.683938   0.062811   x 
            x  Ni          34         0.817654   0.682952   0.188176   x 
            x  Ni          35         0.941797   0.558438   0.188241   x 
            x  Ni          36         0.942236   0.682953   0.063239   x 
            x  Ni          37         0.568148   0.934984   0.189944   x 
            x  Ni          38         0.694875   0.809439   0.188651   x 
            x  Ni          39         0.697450   0.934903   0.062688   x 
            x  Ni          40         0.820067   0.933475   0.188601   x 
            x  Ni          41         0.942642   0.807809   0.188411   x 
            x  Ni          42         0.942989   0.933264   0.062983   x 
            x  Ni          43         0.568961   0.177791   0.187814   x 
            x  Ni          44         0.695429   0.057655   0.188498   x 
            x  Ni          45         0.694966   0.182750   0.062706   x 
            x  Ni          46         0.818724   0.183904   0.188197   x 
            x  Ni          47         0.943248   0.058813   0.188470   x 
            x  Ni          48         0.942748   0.184222   0.063092   x 
            x  Ni          49         0.563624   0.433790   0.432823   x 
            x  Ni          50         0.692610   0.309597   0.437739   x 
            x  Ni          51         0.690944   0.433686   0.311879   x 
            x  Ni          52         0.816565   0.434356   0.437469   x 
            x  Ni          53         0.942358   0.309923   0.437897   x 
            x  Ni          54         0.941925   0.434235   0.313045   x 
            x  Ni          55         0.567433   0.684533   0.439126   x 
            x  Ni          56         0.690520   0.558327   0.437361   x 
            x  Ni          57         0.691775   0.682957   0.312034   x 
            x  Ni          58         0.817360   0.682050   0.437736   x 
            x  Ni          59         0.942033   0.558362   0.437733   x 
            x  Ni          60         0.942248   0.682711   0.313175   x 
            x  Ni          61         0.570509   0.932732   0.440254   x 
            x  Ni          62         0.695253   0.807628   0.439486   x 
            x  Ni          63         0.696982   0.933154   0.314375   x 
            x  Ni          64         0.820089   0.932778   0.438924   x 
            x  Ni          65         0.942844   0.807337   0.438129   x 
            x  Ni          66         0.943111   0.933037   0.313582   x 
            x  Ni          67         0.571307   0.182276   0.439188   x 
            x  Ni          68         0.697558   0.058303   0.440097   x 
            x  Ni          69         0.695487   0.183730   0.313334   x 
            x  Ni          70         0.818896   0.185014   0.438517   x 
            x  Ni          71         0.943173   0.058928   0.438293   x 
            x  Ni          72         0.942573   0.184494   0.313337   x 
            x  Ni          73         0.568011   0.433794   0.690695   x 
            x  Ni          74         0.693259   0.308977   0.688395   x 
            x  Ni          75         0.690438   0.434403   0.562160   x 
            x  Ni          76         0.817124   0.434071   0.687519   x 
            x  Ni          77         0.942555   0.309804   0.687457   x 
            x  Ni          78         0.942131   0.434285   0.562562   x 
            x  Ni          79         0.568189   0.684295   0.688864   x 
            x  Ni          80         0.692462   0.558435   0.688828   x 
            x  Ni          81         0.693186   0.682534   0.563299   x 
            x  Ni          82         0.818069   0.682288   0.687965   x 
            x  Ni          83         0.942221   0.558270   0.687663   x 
            x  Ni          84         0.942404   0.682373   0.562743   x 
            x  Ni          85         0.569599   0.934265   0.687085   x 
            x  Ni          86         0.695692   0.808112   0.687129   x 
            x  Ni          87         0.696001   0.933037   0.563649   x 
            x  Ni          88         0.819993   0.933419   0.687447   x 
            x  Ni          89         0.942901   0.807524   0.687629   x 
            x  Ni          90         0.943642   0.933002   0.562950   x 
            x  Ni          91         0.568738   0.182412   0.688035   x 
            x  Ni          92         0.695330   0.058890   0.687508   x 
            x  Ni          93         0.694899   0.184230   0.563695   x 
            x  Ni          94         0.819133   0.184665   0.687663   x 
            x  Ni          95         0.943691   0.058986   0.687471   x 
            x  Ni          96         0.943073   0.184933   0.562796   x 
            x  Ni          97         0.071320   0.430807   0.933916   x 
            x  Ni          98         0.191717   0.305947   0.934623   x 
            x  Ni          99         0.064553   0.305677   0.808629   x 
            x  Ni         100         0.312290   0.432130   0.934948   x 
            x  Ni         101         0.442912   0.305782   0.938030   x 
            x  Ni         102         0.317117   0.557906   0.811790   x 
            x  Ni         103         0.320129   0.304292   0.811449   x 
            x  Ni         104         0.065607   0.560650   0.806475   x 
            x  Ni         105         0.065443   0.687319   0.936660   x 
            x  Ni         106         0.314950   0.684745   0.933468   x 
            x  Ni         107         0.442366   0.558222   0.936716   x 
            x  Ni         108         0.444610   0.686768   0.815745   x 
            x  Ni         109         0.190062   0.686604   0.810810   x 
            x  Ni         110         0.065980   0.934453   0.935739   x 
            x  Ni         111         0.316477   0.813057   0.812327   x 
            x  Ni         112         0.189883   0.936595   0.807729   x 
            x  Ni         113         0.313680   0.938974   0.934983   x 
            x  Ni         114         0.318270   0.811199   0.059657   x 
            x  Ni         115         0.444843   0.936017   0.812024   x 
            x  Ni         116         0.065542   0.181141   0.934145   x 
            x  Ni         117         0.315612   0.061876   0.809538   x 
            x  Ni         118         0.066722   0.058578   0.805870   x 
            x  Ni         119         0.314680   0.179893   0.935740   x 
            x  Ni         120         0.443283   0.057077   0.937459   x 
            x  Ni         121         0.445095   0.181866   0.813441   x 
            x  Ni         122         0.192977   0.061183   0.678171   x 
            x  Ni         123         0.065428   0.430630   0.187730   x 
            x  Ni         124         0.194666   0.307060   0.188922   x 
            x  Ni         125         0.063970   0.304270   0.061893   x 
            x  Ni         126         0.447646   0.303072   0.186255   x 
            x  Ni         127         0.443904   0.432494   0.059357   x 
            x  Ni         128         0.319995   0.306569   0.061715   x 
            x  Ni         129         0.071868   0.683638   0.190037   x 
            x  Ni         130         0.194031   0.552359   0.183869   x 
            x  Ni         131         0.192448   0.682985   0.061118   x 
            x  Ni         132         0.066933   0.557821   0.061341   x 
            x  Ni         133         0.316429   0.680136   0.188007   x 
            x  Ni         134         0.445790   0.560130   0.183884   x 
            x  Ni         135         0.314489   0.552761   0.059183   x 
            x  Ni         136         0.066966   0.060706   0.063436   x 
            x  Ni         137         0.070338   0.813698   0.066449   x 
            x  Ni         138         0.315047   0.937893   0.189777   x 
            x  Ni         139         0.444062   0.936399   0.063777   x 
            x  Ni         140         0.191260   0.937617   0.063127   x 
            x  Ni         141         0.194721   0.063942   0.191025   x 
            x  Ni         142         0.191118   0.184134   0.061120   x 
            x  Ni         143         0.318009   0.182922   0.189286   x 
            x  Ni         144         0.443769   0.178614   0.062822   x 
            x  Ni         145         0.065344   0.309462   0.314454   x 
            x  Ni         146         0.450578   0.305305   0.436535   x 
            x  Ni         147         0.325582   0.310442   0.311253   x 
            x  Ni         148         0.067111   0.678448   0.438451   x 
            x  Ni         149         0.064710   0.555897   0.313985   x 
            x  Ni         150         0.200304   0.547756   0.441559   x 
            x  Ni         151         0.446830   0.560304   0.438077   x 
            x  Ni         152         0.445060   0.685620   0.310205   x 
            x  Ni         153         0.325761   0.552978   0.312505   x 
            x  Ni         154         0.065126   0.931753   0.436103   x 
            x  Ni         155         0.193443   0.802501   0.434203   x 
            x  Ni         156         0.191676   0.933028   0.314961   x 
            x  Ni         157         0.318346   0.931751   0.438212   x 
            x  Ni         158         0.445856   0.809511   0.436539   x 
            x  Ni         159         0.444356   0.933493   0.314870   x 
            x  Ni         160         0.316068   0.806009   0.313356   x 
            x  Ni         161         0.065602   0.186310   0.436452   x 
            x  Ni         162         0.191400   0.059262   0.440843   x 
            x  Ni         163         0.068522   0.062367   0.315843   x 
            x  Ni         164         0.320897   0.186005   0.439810   x 
            x  Ni         165         0.446303   0.057524   0.437183   x 
            x  Ni         166         0.445736   0.181000   0.314115   x 
            x  Ni         167         0.318101   0.059599   0.317545   x 
            x  Ni         168         0.066440   0.431437   0.684572   x 
            x  Ni         169         0.194920   0.302885   0.684823   x 
            x  Ni         170         0.195592   0.318246   0.436831   x 
            x  Ni         171         0.063919   0.309021   0.558225   x 
            x  Ni         172         0.320759   0.431446   0.689021   x 
            x  Ni         173         0.447879   0.307718   0.689054   x 
            x  Ni         174         0.448083   0.432538   0.564204   x 
            x  Ni         175         0.324246   0.309980   0.562144   x 
            x  Ni         176         0.067217   0.810937   0.808141   x 
            x  Ni         177         0.194461   0.558455   0.687373   x 
            x  Ni         178         0.199944   0.680075   0.560105   x 
            x  Ni         179         0.066454   0.557303   0.561977   x 
            x  Ni         180         0.442673   0.431832   0.815461   x 
            x  Ni         181         0.443714   0.684740   0.565904   x 
            x  Ni         182         0.445396   0.559966   0.693294   x 
            x  Ni         183         0.068181   0.932516   0.680097   x 
            x  Ni         184         0.194823   0.811524   0.684254   x 
            x  Ni         185         0.066732   0.807093   0.557605   x 
            x  Ni         186         0.445028   0.810625   0.690330   x 
            x  Ni         187         0.444835   0.933846   0.562615   x 
            x  Ni         188         0.321261   0.809443   0.562905   x 
            x  Ni         189         0.066440   0.183159   0.680206   x 
            x  Ni         190         0.320332   0.057864   0.560927   x 
            x  Ni         191         0.446347   0.057548   0.687457   x 
            x  Ni         192         0.447069   0.182446   0.561492   x 
            xxxxxxxxxxxxxxxxxxxxxxxxxxxxxxxxxxxxxxxxxxxxxxxxxxxxxxxxxxxx
 
 
                         No user defined ionic velocities
 
                           -------------------------------
                                   Details of Species
                           -------------------------------
 
                               Mass of species in AMU
                                    Al   26.9815400
                                    Ni   58.6934000
 
                          Electric Quadrupole Moment (Barn)
                                    Al    0.1466000 Isotope 27
                                    Ni    0.1620000 Isotope 61
 
                          Files used for pseudopotentials:
                                    Al 3|2.2|2.2|1.4|4|5|5|30:31:32U2U2
                                    Ni 3|2.4|2.4|1.0|8|9|10|40:41:32U2U2(qc=5.5)
 
                           -------------------------------
                              k-Points For BZ Sampling
                           -------------------------------
                       MP grid size for SCF calculation is  1  1  1
                            with an offset of   0.000  0.000  0.000
                       Number of kpoints used =             1
 
                           -------------------------------
                               Symmetry and Constraints
                           -------------------------------
 
                      Maximum deviation from symmetry =  0.00000         ANG
 
                      Number of symmetry operations   =           1
                      Number of ionic constraints     =           3
                      Point group of crystal =     1: C1, 1, 1
                      Space group of crystal =     1: P1, P 1
 
             Set iprint > 1 for details on symmetry rotations/translations
 
                         Centre of mass is constrained
             Set iprint > 1 for details of linear ionic constraints
 
                         Number of cell constraints= 6
                         Cell constraints are:  0 0 0 0 0 0
 
                         External pressure/stress (GPa)
                          0.00000   0.00000   0.00000
                                    0.00000   0.00000
                                              0.00000
 
+---------------- MEMORY AND SCRATCH DISK ESTIMATES PER PROCESS --------------+
|                                                     Memory          Disk    |
| Baseline code, static data and system overhead      855.0 MB         0.0 MB |
| BLAS internal memory storage                          0.0 MB         0.0 MB |
| Model and support data                              349.7 MB         0.0 MB |
| Electronic energy minimisation requirements          97.8 MB         0.0 MB |
| Force calculation requirements                        2.3 MB         0.0 MB |
|                                               ----------------------------- |
| Approx. total storage required per process         1302.5 MB         0.0 MB |
|                                                                             |
| Requirements will fluctuate during execution and may exceed these estimates |
+-----------------------------------------------------------------------------+
Calculating approximate eigenstates for fixed initial Hamiltonian
Cut-off for approx. calculation is  550.359 eV
Resetting cut-off to  900.000 eV
Calculating total energy with cut-off of  900.000 eV.
------------------------------------------------------------------------ <-- SCF
SCF loop      Energy           Fermi           Energy gain       Timer   <-- SCF
                               energy          per atom          (sec)   <-- SCF
------------------------------------------------------------------------ <-- SCF
Initial  -2.71877695E+005  0.00000000E+000                      1473.04  <-- SCF
      1  -2.71332261E+005  3.14146506E+000  -2.13895846E+000    1538.65  <-- SCF
      2  -2.71490096E+005  3.15734522E+000   6.18962559E-001    1608.90  <-- SCF
      3  -2.72613803E+005  8.86568338E+000   4.40669384E+000    1690.59  <-- SCF
      4  -2.72669191E+005  8.86861384E+000   2.17207557E-001    1768.50  <-- SCF
      5  -2.71605233E+005  6.40708128E+000  -4.17238553E+000    1870.49  <-- SCF
      6  -2.71749590E+005  6.38076706E+000   5.66107508E-001    1954.55  <-- SCF
      7  -2.71458837E+005  4.88570845E+000  -1.14020665E+000    2034.43  <-- SCF
      8  -2.71394985E+005  4.44374099E+000  -2.50401746E-001    2105.24  <-- SCF
      9  -2.71388665E+005  4.41117438E+000  -2.47828403E-002    2175.63  <-- SCF
     10  -2.71392461E+005  4.45767088E+000   1.48866050E-002    2247.43  <-- SCF
     11  -2.72052620E+005  5.88350297E+000   2.58885675E+000    2321.21  <-- SCF
     12  -2.71527140E+005  4.76363422E+000  -2.06070596E+000    2424.66  <-- SCF
     13  -2.71444665E+005  4.26626716E+000  -3.23431491E-001    2504.55  <-- SCF
     14  -2.71407308E+005  4.22541295E+000  -1.46497581E-001    2578.05  <-- SCF
     15  -2.71398490E+005  4.29728213E+000  -3.45807417E-002    2645.57  <-- SCF
     16  -2.71394351E+005  4.33090841E+000  -1.62313437E-002    2712.87  <-- SCF
     17  -2.71390138E+005  4.35162190E+000  -1.65206684E-002    2792.53  <-- SCF
     18  -2.71387585E+005  4.35269906E+000  -1.00123925E-002    2869.45  <-- SCF
     19  -2.71386405E+005  4.34832482E+000  -4.62905595E-003    2953.49  <-- SCF
     20  -2.71385972E+005  4.34146870E+000  -1.69573953E-003    3025.17  <-- SCF
     21  -2.71385622E+005  4.35412422E+000  -1.37208454E-003    3093.64  <-- SCF
     22  -2.71385467E+005  4.37664432E+000  -6.07397991E-004    3159.86  <-- SCF
     23  -2.71385318E+005  4.39025940E+000  -5.84838360E-004    3227.75  <-- SCF
     24  -2.71385197E+005  4.38645537E+000  -4.74124991E-004    3294.57  <-- SCF
     25  -2.71385168E+005  4.37956002E+000  -1.16437001E-004    3361.78  <-- SCF
     26  -2.71385140E+005  4.37781852E+000  -1.09014753E-004    3429.13  <-- SCF
     27  -2.71385125E+005  4.37762072E+000  -5.92687378E-005    3505.65  <-- SCF
     28  -2.71385128E+005  4.37893627E+000   1.29600176E-005    3574.27  <-- SCF
     29  -2.71385128E+005  4.38073752E+000  -1.88924300E-007    3643.59  <-- SCF
     30  -2.71385126E+005  4.38066360E+000  -7.09546513E-006    3712.60  <-- SCF
     31  -2.71385125E+005  4.38016193E+000  -5.25722446E-006    3766.07  <-- SCF
     32  -2.71385123E+005  4.37992378E+000  -7.70176710E-006    3819.91  <-- SCF
     33  -2.71385123E+005  4.37984758E+000  -9.42295130E-008    3863.76  <-- SCF
     34  -2.71385123E+005  4.37986999E+000   3.38675139E-007    3911.69  <-- SCF
------------------------------------------------------------------------ <-- SCF
 
Integrated Spin Density     =    0.693104E-01 hbar/2
Integrated |Spin Density|   =    0.136423     hbar/2
 
Final energy, E             =  -271380.6280494     eV
Final free energy (E-TS)    =  -271385.1229616     eV
(energies not corrected for finite basis set)
 
NB est. 0K energy (E-0.5TS)      =  -271382.8755055     eV
 

Writing analysis data to castep.castep_bin

Writing model to castep.check
 
+---------------- MEMORY AND SCRATCH DISK ESTIMATES PER PROCESS --------------+
|                                                     Memory          Disk    |
| Model and support data                              360.0 MB         0.0 MB |
| Electronic energy minimisation requirements          97.8 MB         0.0 MB |
| Geometry minimisation requirements                  126.4 MB         0.0 MB |
|                                               ----------------------------- |
| Approx. total storage required per process          584.2 MB         0.0 MB |
|                                                                             |
| Requirements will fluctuate during execution and may exceed these estimates |
+-----------------------------------------------------------------------------+
 
 
 ************************************** Forces **************************************
 *                                                                                  *
 *                           Cartesian components (eV/A)                            *
 * -------------------------------------------------------------------------------- *
 *                         x                    y                    z              *
 *                                                                                  *
 * Al              1     -0.11920             -0.00506             -0.02659         *
 * Al              2      0.04666             -0.02462             -0.00558         *
 * Al              3     -0.10634             -0.02167              0.00909         *
 * Al              4      0.08429             -0.01098              0.00510         *
 * Al              5     -0.08434              0.00026             -0.13503         *
 * Al              6      0.11983              0.02580              0.00454         *
 * Al              7     -0.16057              0.03713             -0.02750         *
 * Al              8      0.07017              0.01716             -0.02632         *
 * Al              9     -0.08875              0.04948             -0.02112         *
 * Al             10      0.06400              0.01149             -0.02520         *
 * Al             11     -0.05706             -0.13444             -0.01513         *
 * Al             12      0.10614              0.00230             -0.01253         *
 * Al             13      0.34896              0.07388             -0.01250         *
 * Al             14      0.05169             -0.04022             -0.03320         *
 * Al             15     -0.02867              0.00931             -0.11356         *
 * Al             16      0.08212              0.02974             -0.02479         *
 * Al             17     -0.20505              0.05575              0.01252         *
 * Al             18      0.05186              0.01586             -0.00691         *
 * Al             19     -0.16456             -0.08124             -0.01254         *
 * Al             20      0.08815              0.00799             -0.01547         *
 * Al             21     -0.02977              0.02757              0.12845         *
 * Al             22      0.11466             -0.00539             -0.00033         *
 * Al             23      0.01144              0.00686              0.11810         *
 * Al             24      0.02597             -0.00050             -0.01431         *
 * Al             25     -0.12377             -0.05687              0.01486         *
 * Al             26      0.00635             -0.02365              0.01212         *
 * Al             27     -0.12147             -0.00924              0.02619         *
 * Al             28      0.07243              0.02544              0.00584         *
 * Al             29     -0.15269              0.05046              0.00967         *
 * Al             30      0.05696              0.00432              0.01566         *
 * Al             31     -0.18848              0.02292              0.01273         *
 * Al             32      0.09068             -0.02662              0.03120         *
 * Al             33      0.13594              0.10286              0.12230         *
 * Al             34      0.30888              0.16171              0.29221         *
 * Al             35     -0.03417             -0.00738             -0.07505         *
 * Al             36      0.16465              0.04914              0.21362         *
 * Al             37     -0.04992             -0.29083             -0.04986         *
 * Al             38      0.04983              0.06759              0.19142         *
 * Al             39     -0.56821             -0.28683              0.53446         *
 * Al             40      0.14778             -0.17102             -0.03737         *
 * Al             41     -0.76260             -0.03287              0.59926         *
 * Al             42      0.21641              0.29804             -0.06977         *
 * Al             43     -0.07565             -0.17749             -0.05894         *
 * Al             44      0.20550             -0.15983             -0.21957         *
 * Al             45     -0.04014              0.00707              0.15101         *
 * Al             46     -0.04971              0.09112             -0.12645         *
 * Al             47     -0.62634             -0.08687              0.03518         *
 * Al             48     -0.24188             -0.06935             -0.02701         *
 * Al             49      0.01656              0.16364              0.13479         *
 * Al             50     -0.29597              0.05017             -0.04485         *
 * Al             51     -0.51792             -0.08910             -0.66799         *
 * Al             52     -0.12648              0.06312              0.20217         *
 * Al             53     -0.60634             -0.02692             -0.64752         *
 * Al             54      0.09552             -0.06186             -0.16976         *
 * Al             55     -0.18050             -0.19860             -0.04135         *
 * Al             56      0.24105              0.00505             -0.06625         *
 * Al             57     -0.20236             -0.11019             -0.11842         *
 * Al             58     -0.08622              0.03219              0.13460         *
 * Al             59     -0.00553              0.09019             -0.27365         *
 * Al             60     -0.19272             -0.03078             -0.14369         *
 * Al             61      0.01079              0.04303              0.01136         *
 * Al             62     -0.15740             -0.02227              0.25597         *
 * Al             63     -0.03735              0.11191             -0.00560         *
 * Ni              1     -0.00339              0.05023             -0.04762         *
 * Ni              2      0.00662             -0.00526              0.01319         *
 * Ni              3      0.02483              0.01915              0.01693         *
 * Ni              4      0.09534             -0.01149             -0.00419         *
 * Ni              5      0.18509             -0.03335             -0.05142         *
 * Ni              6      0.16248              0.04413             -0.05385         *
 * Ni              7      0.12002              0.20402              0.30704         *
 * Ni              8      0.02801             -0.01319              0.01433         *
 * Ni              9      0.03887              0.00372             -0.02331         *
 * Ni             10     -0.00957              0.00280              0.02180         *
 * Ni             11      0.37632             -0.05804             -0.06714         *
 * Ni             12      0.22247              0.09985             -0.03254         *
 * Ni             13      0.10057             -0.15416              0.18162         *
 * Ni             14     -0.05990             -0.01234              0.00322         *
 * Ni             15     -0.09139             -0.02453              0.03404         *
 * Ni             16     -0.02295              0.00195             -0.01507         *
 * Ni             17      0.17794              0.11673              0.00897         *
 * Ni             18      0.14864             -0.00542             -0.15202         *
 * Ni             19     -0.00110             -0.00507              0.08493         *
 * Ni             20      0.05379              0.00882              0.00579         *
 * Ni             21     -0.00880             -0.00442             -0.00973         *
 * Ni             22      0.02623              0.00550             -0.02424         *
 * Ni             23      0.20427             -0.00692             -0.04649         *
 * Ni             24      0.06199             -0.13238             -0.13595         *
 * Ni             25      0.22652              0.04923             -0.20834         *
 * Ni             26      0.07633              0.05971              0.02614         *
 * Ni             27      0.07925              0.00017             -0.03153         *
 * Ni             28      0.03211              0.01666             -0.05924         *
 * Ni             29      0.11167              0.06319             -0.00243         *
 * Ni             30      0.26215             -0.06319             -0.11283         *
 * Ni             31      0.14199              0.21038             -0.26399         *
 * Ni             32      0.00349             -0.03258              0.03462         *
 * Ni             33     -0.05301              0.02498              0.00726         *
 * Ni             34     -0.03428             -0.06973             -0.02575         *
 * Ni             35      0.24141             -0.00603             -0.00917         *
 * Ni             36      0.31321              0.09441              0.05483         *
 * Ni             37      0.20915             -0.05099             -0.06971         *
 * Ni             38      0.02689             -0.02823             -0.00111         *
 * Ni             39     -0.07587              0.00048              0.02366         *
 * Ni             40     -0.01793             -0.04041             -0.02305         *
 * Ni             41      0.41122              0.00736             -0.02554         *
 * Ni             42      0.26830              0.06508             -0.05605         *
 * Ni             43      0.09037             -0.04699              0.02900         *
 * Ni             44      0.09331             -0.00700             -0.01035         *
 * Ni             45     -0.03357             -0.01143              0.02765         *
 * Ni             46      0.02162              0.06531             -0.01262         *
 * Ni             47     -0.08046              0.14732              0.10389         *
 * Ni             48     -0.01190             -0.11507             -0.09721         *
 * Ni             49      0.20711             -0.05551              0.12799         *
 * Ni             50      0.00334             -0.02492             -0.02847         *
 * Ni             51     -0.09283              0.01220             -0.00791         *
 * Ni             52      0.08351             -0.01309              0.01269         *
 * Ni             53     -0.08281             -0.22735             -0.08127         *
 * Ni             54     -0.14726             -0.05857             -0.21726         *
 * Ni             55      0.09408              0.00177             -0.15416         *
 * Ni             56      0.02015              0.02547             -0.04976         *
 * Ni             57      0.02172              0.02197              0.01375         *
 * Ni             58     -0.00518              0.02267             -0.02105         *
 * Ni             59     -0.03875              0.20705              0.00165         *
 * Ni             60      0.11819             -0.12934             -0.04974         *
 * Ni             61      0.09859              0.05378             -0.16236         *
 * Ni             62     -0.00660             -0.00996              0.00608         *
 * Ni             63     -0.11304              0.00083             -0.05115         *
 * Ni             64     -0.03740              0.01137              0.01680         *
 * Ni             65      0.02169             -0.11516              0.09709         *
 * Ni             66      0.14859              0.02749             -0.04097         *
 * Ni             67      0.08325              0.00079             -0.14456         *
 * Ni             68     -0.00659             -0.00437             -0.00405         *
 * Ni             69     -0.01859             -0.03930             -0.02117         *
 * Ni             70      0.00341             -0.03410              0.00449         *
 * Ni             71     -0.22556              0.04942             -0.49927         *
 * Ni             72     -0.07577             -0.03615              0.11495         *
 * Ni             73      0.10140             -0.00694              0.05735         *
 * Ni             74      0.02751             -0.00214             -0.00321         *
 * Ni             75      0.09735             -0.00882              0.02677         *
 * Ni             76     -0.00506             -0.02872              0.04131         *
 * Ni             77      0.09008             -0.06316             -0.12866         *
 * Ni             78     -0.13028              0.00961              0.18463         *
 * Ni             79      0.11022             -0.03670              0.12860         *
 * Ni             80      0.03478              0.03141              0.00785         *
 * Ni             81      0.00940              0.02409             -0.00312         *
 * Ni             82      0.00047             -0.00790             -0.00419         *
 * Ni             83      0.11088             -0.05026             -0.11866         *
 * Ni             84      0.00792             -0.03159             -0.13997         *
 * Ni             85      0.12021             -0.00844              0.04781         *
 * Ni             86     -0.00190             -0.00404             -0.01142         *
 * Ni             87     -0.01278             -0.01090             -0.00596         *
 * Ni             88     -0.05488              0.02733              0.02105         *
 * Ni             89      0.14247              0.12039             -0.15464         *
 * Ni             90     -0.23353             -0.35031             -0.13230         *
 * Ni             91      0.12721              0.05936             -0.00674         *
 * Ni             92      0.00625             -0.03112              0.01313         *
 * Ni             93     -0.00646             -0.00334             -0.03167         *
 * Ni             94      0.01315              0.01386              0.01978         *
 * Ni             95     -0.11086             -0.07186              0.09492         *
 * Ni             96     -0.34581              0.26542             -0.13370         *
 * Ni             97     -0.27188              0.33499              0.07324         *
 * Ni             98      0.01463             -0.17714              0.17292         *
 * Ni             99      0.01172              0.29298              0.14251         *
 * Ni            100      0.22810              0.05819              0.12185         *
 * Ni            101     -0.20741              0.02971             -0.06794         *
 * Ni            102      0.03162             -0.10391              0.18161         *
 * Ni            103      0.09132              0.02440              0.06197         *
 * Ni            104      0.08036             -0.25515              0.44978         *
 * Ni            105     -0.07085             -0.17834              0.04050         *
 * Ni            106      0.32280             -0.05999              0.05446         *
 * Ni            107     -0.18397             -0.16210              0.00375         *
 * Ni            108     -0.07091             -0.00202              0.00534         *
 * Ni            109      0.01429             -0.00245             -0.04122         *
 * Ni            110     -0.16386             -0.17219              0.15445         *
 * Ni            111     -0.22181             -0.05220             -0.06036         *
 * Ni            112      0.03549             -0.14378             -0.04397         *
 * Ni            113      0.26092              0.13646              0.07271         *
 * Ni            114      0.01440             -0.02026              0.00820         *
 * Ni            115     -0.05938              0.01390              0.13998         *
 * Ni            116      0.08958              0.23309              0.17878         *
 * Ni            117      0.07286              0.02018              0.12729         *
 * Ni            118      0.11301             -0.00431              0.13331         *
 * Ni            119      0.16202              0.09414              0.02914         *
 * Ni            120     -0.02794              0.06393             -0.25598         *
 * Ni            121     -0.11840             -0.06321              0.24263         *
 * Ni            122     -0.17118             -0.05819              0.13539         *
 * Ni            123     -0.08626              0.15163             -0.14821         *
 * Ni            124      0.09939             -0.00539             -0.02353         *
 * Ni            125      0.16438              0.29673             -0.10152         *
 * Ni            126     -0.27467             -0.24318              0.06047         *
 * Ni            127     -0.04989             -0.05126             -0.11512         *
 * Ni            128     -0.17923             -0.07924              0.00792         *
 * Ni            129     -0.03774              0.15761             -0.11084         *
 * Ni            130      0.04651             -0.06391              0.00588         *
 * Ni            131      0.03279              0.00572              0.09903         *
 * Ni            132      0.09071             -0.02286              0.04626         *
 * Ni            133      0.12271             -0.12613             -0.15471         *
 * Ni            134     -0.07703              0.11640              0.19478         *
 * Ni            135     -0.18496              0.05395              0.08973         *
 * Ni            136     -0.18810              0.06358             -0.13997         *
 * Ni            137     -0.34697             -0.39831             -0.02397         *
 * Ni            138      0.12036              0.09033             -0.02138         *
 * Ni            139     -0.12776             -0.03057             -0.08156         *
 * Ni            140      0.12598             -0.02024             -0.00384         *
 * Ni            141     -0.13701              0.08706              0.20346         *
 * Ni            142      0.17749              0.01593             -0.11430         *
 * Ni            143      0.32781              0.19823             -0.22796         *
 * Ni            144     -0.09643             -0.05377              0.01241         *
 * Ni            145      0.17011              0.04447             -0.11258         *
 * Ni            146     -0.35591             -0.22661              0.20731         *
 * Ni            147     -0.04219             -0.07327              0.05595         *
 * Ni            148      0.22162              0.10777             -0.03196         *
 * Ni            149      0.20429             -0.06052             -0.25248         *
 * Ni            150      0.02305             -0.07571              0.23425         *
 * Ni            151     -0.31609              0.06346              0.13054         *
 * Ni            152      0.03740             -0.14381             -0.04315         *
 * Ni            153     -0.06548              0.17194             -0.22125         *
 * Ni            154      0.19494              0.21389              0.02239         *
 * Ni            155     -0.00967             -0.12731              0.07399         *
 * Ni            156     -0.04911             -0.12994             -0.28939         *
 * Ni            157      0.25129              0.05467             -0.25480         *
 * Ni            158     -0.17815              0.11384              0.24216         *
 * Ni            159     -0.15458             -0.05263              0.11243         *
 * Ni            160     -0.25206              0.16187              0.21472         *
 * Ni            161     -0.02837              0.06398              0.10968         *
 * Ni            162     -0.00920             -0.12837              0.08092         *
 * Ni            163      0.00611              0.06207              0.25458         *
 * Ni            164      0.33296             -0.09845             -0.08190         *
 * Ni            165     -0.32876              0.04538              0.17509         *
 * Ni            166     -0.10703              0.12371             -0.01651         *
 * Ni            167     -0.05822             -0.15428              0.09744         *
 * Ni            168     -0.24611              0.15705              0.24788         *
 * Ni            169     -0.02707             -0.12574             -0.05832         *
 * Ni            170      0.06671              0.28602             -0.03238         *
 * Ni            171      0.25575              0.11845              0.32545         *
 * Ni            172      0.25943             -0.14545              0.00039         *
 * Ni            173     -0.26723              0.26870             -0.07357         *
 * Ni            174     -0.06081              0.00008              0.01569         *
 * Ni            175      0.03066             -0.07098             -0.02496         *
 * Ni            176     -0.02189             -0.06046              0.21732         *
 * Ni            177      0.05978             -0.01422             -0.17727         *
 * Ni            178      0.07382              0.08898             -0.22427         *
 * Ni            179      0.29052             -0.07780              0.06049         *
 * Ni            180     -0.07006              0.02700             -0.11806         *
 * Ni            181     -0.09651             -0.01919              0.06590         *
 * Ni            182     -0.17407             -0.17220             -0.10102         *
 * Ni            183      0.03214              0.09968              0.35089         *
 * Ni            184     -0.15312              0.15976              0.01007         *
 * Ni            185      0.11369             -0.06042              0.00944         *
 * Ni            186     -0.00376             -0.09867             -0.14141         *
 * Ni            187     -0.06998             -0.10590             -0.19257         *
 * Ni            188      0.05243              0.18189             -0.07159         *
 * Ni            189     -0.08449              0.09765              0.27983         *
 * Ni            190      0.13603             -0.01320             -0.20491         *
 * Ni            191     -0.05815              0.04099             -0.11845         *
 * Ni            192      0.09120             -0.00024             -0.13583         *
 *                                                                                  *
 ************************************************************************************
 LBFGS: finished iteration     0 with enthalpy= -2.71385123E+005 eV
  
 +-----------+-----------------+-----------------+------------+-----+ <-- LBFGS
 | Parameter |      value      |    tolerance    |    units   | OK? | <-- LBFGS
 +-----------+-----------------+-----------------+------------+-----+ <-- LBFGS
 |  dE/ion   |   0.000000E+000 |   2.000000E-005 |         eV | No  | <-- LBFGS
 |  |F|max   |   9.704395E-001 |   5.000000E-002 |       eV/A | No  | <-- LBFGS
 |  |dR|max  |   0.000000E+000 |   1.000000E-003 |          A | No  | <-- LBFGS
 +-----------+-----------------+-----------------+------------+-----+ <-- LBFGS
  

================================================================================
 Starting LBFGS iteration          1 ...
================================================================================
  
 +------------+-------------+-------------+-----------------+ <-- min LBFGS
 |    Step    |   lambda    |   F.delta'  |    enthalpy     | <-- min LBFGS
 +------------+-------------+-------------+-----------------+ <-- min LBFGS
 |  previous  |    0.000000 |    2.079027 |  -271385.122962 | <-- min LBFGS
 +------------+-------------+-------------+-----------------+ <-- min LBFGS
  

--------------------------------------------------------------------------------
 LBFGS: starting iteration         1 with trial guess (lambda=  1.000000)
--------------------------------------------------------------------------------
 
                           -------------------------------
                                     Cell Contents
                           -------------------------------
 
            xxxxxxxxxxxxxxxxxxxxxxxxxxxxxxxxxxxxxxxxxxxxxxxxxxxxxxxxxxxxxxxxx
            x  Element         Atom        Fractional coordinates of atoms  x
            x                 Number           u          v          w      x
            x---------------------------------------------------------------x
            x  Al                1         0.570688   0.307411   0.814005   x
            x  Al                2         0.818253   0.309205   0.812755   x
            x  Al                3         0.569875   0.559263   0.815379   x
            x  Al                4         0.817604   0.558237   0.813195   x
            x  Al                5         0.575302   0.809633   0.809865   x
            x  Al                6         0.819112   0.807801   0.812327   x
            x  Al                7         0.572227   0.058449   0.813003   x
            x  Al                8         0.819974   0.059147   0.811975   x
            x  Al                9         0.569597   0.305964   0.062225   x
            x  Al               10         0.817817   0.308659   0.063473   x
            x  Al               11         0.573344   0.554856   0.061427   x
            x  Al               12         0.816705   0.558098   0.063514   x
            x  Al               13         0.577380   0.814392   0.062681   x
            x  Al               14         0.819194   0.808320   0.063089   x
            x  Al               15         0.574361   0.057121   0.058893   x
            x  Al               16         0.819976   0.058972   0.062897   x
            x  Al               17         0.570260   0.306342   0.311675   x
            x  Al               18         0.817081   0.309542   0.312893   x
            x  Al               19         0.567324   0.559704   0.311044   x
            x  Al               20         0.816100   0.558300   0.312630   x
            x  Al               21         0.574652   0.809406   0.315796   x
            x  Al               22         0.818587   0.807346   0.313562   x
            x  Al               23         0.577138   0.057432   0.318838   x
            x  Al               24         0.819626   0.058860   0.313712   x
            x  Al               25         0.571616   0.308622   0.563530   x
            x  Al               26         0.817117   0.310216   0.562761   x
            x  Al               27         0.568922   0.558949   0.564418   x
            x  Al               28         0.816571   0.557898   0.562591   x
            x  Al               29         0.570684   0.808508   0.564019   x
            x  Al               30         0.819231   0.807162   0.563082   x
            x  Al               31         0.572532   0.057948   0.562649   x
            x  Al               32         0.820044   0.059085   0.563520   x
            x  Al               33         0.328693   0.182483   0.683968   x
            x  Al               34         0.056350   0.057853   0.557620   x
            x  Al               35         0.192980   0.190308   0.554616   x
            x  Al               36         0.321498   0.935472   0.689235   x
            x  Al               37         0.192678   0.929507   0.554593   x
            x  Al               38         0.318589   0.689981   0.693836   x
            x  Al               39         0.074682   0.687540   0.679207   x
            x  Al               40         0.198697   0.188598   0.322245   x
            x  Al               41         0.067230   0.805446   0.315553   x
            x  Al               42         0.326132   0.685010   0.438490   x
            x  Al               43         0.194370   0.667423   0.313205   x
            x  Al               44         0.337281   0.428717   0.430296   x
            x  Al               45         0.328538   0.555022   0.569555   x
            x  Al               46         0.192223   0.432870   0.306405   x
            x  Al               47         0.063730   0.435391   0.438084   x
            x  Al               48         0.317503   0.060371   0.061859   x
            x  Al               49         0.440421   0.057080   0.194620   x
            x  Al               50         0.185824   0.054908   0.935120   x
            x  Al               51         0.068436   0.185162   0.191271   x
            x  Al               52         0.433459   0.814675   0.189363   x
            x  Al               53         0.070860   0.945095   0.191834   x
            x  Al               54         0.201486   0.808499   0.181706   x
            x  Al               55         0.432122   0.677760   0.059849   x
            x  Al               56         0.334573   0.430828   0.188808   x
            x  Al               57         0.188481   0.425158   0.063043   x
            x  Al               58         0.187094   0.186347   0.807248   x
            x  Al               59         0.434352   0.816951   0.935014   x
            x  Al               60         0.191697   0.811545   0.937408   x
            x  Al               61         0.191590   0.426150   0.805268   x
            x  Al               62         0.193506   0.427346   0.571063   x
            x  Al               63         0.188905   0.565175   0.934069   x
            x  Ni                1         0.568083   0.431586   0.937410   x
            x  Ni                2         0.694190   0.307831   0.938159   x
            x  Ni                3         0.693656   0.433459   0.813682   x
            x  Ni                4         0.817454   0.433622   0.938629   x
            x  Ni                5         0.942306   0.309347   0.938030   x
            x  Ni                6         0.942048   0.434086   0.812838   x
            x  Ni                7         0.564552   0.687906   0.941133   x
            x  Ni                8         0.693037   0.558930   0.938125   x
            x  Ni                9         0.693545   0.683086   0.813970   x
            x  Ni               10         0.818572   0.683032   0.938126   x
            x  Ni               11         0.941985   0.558335   0.938224   x
            x  Ni               12         0.942547   0.682773   0.812724   x
            x  Ni               13         0.569283   0.932594   0.935606   x
            x  Ni               14         0.695871   0.808931   0.937003   x
            x  Ni               15         0.696460   0.934206   0.811721   x
            x  Ni               16         0.820186   0.933579   0.937130   x
            x  Ni               17         0.942751   0.807901   0.937688   x
            x  Ni               18         0.943312   0.933127   0.812265   x
            x  Ni               19         0.569017   0.182488   0.937288   x
            x  Ni               20         0.696298   0.058330   0.936468   x
            x  Ni               21         0.694844   0.183632   0.812467   x
            x  Ni               22         0.819213   0.183991   0.937601   x
            x  Ni               23         0.943229   0.058863   0.937518   x
            x  Ni               24         0.943045   0.184533   0.812492   x
            x  Ni               25         0.562045   0.432042   0.190785   x
            x  Ni               26         0.691788   0.307458   0.187569   x
            x  Ni               27         0.692023   0.431826   0.064119   x
            x  Ni               28         0.816727   0.433651   0.188255   x
            x  Ni               29         0.942225   0.309362   0.188371   x
            x  Ni               30         0.941792   0.433957   0.063352   x
            x  Ni               31         0.563837   0.688645   0.183058   x
            x  Ni               32         0.690685   0.558873   0.187674   x
            x  Ni               33         0.693680   0.683941   0.062812   x
            x  Ni               34         0.817650   0.682943   0.188173   x
            x  Ni               35         0.941829   0.558437   0.188240   x
            x  Ni               36         0.942277   0.682965   0.063247   x
            x  Ni               37         0.568176   0.934977   0.189935   x
            x  Ni               38         0.694878   0.809436   0.188651   x
            x  Ni               39         0.697440   0.934903   0.062691   x
            x  Ni               40         0.820064   0.933470   0.188598   x
            x  Ni               41         0.942696   0.807810   0.188407   x
            x  Ni               42         0.943025   0.933273   0.062976   x
            x  Ni               43         0.568973   0.177785   0.187818   x
            x  Ni               44         0.695442   0.057654   0.188497   x
            x  Ni               45         0.694961   0.182748   0.062710   x
            x  Ni               46         0.818727   0.183913   0.188195   x
            x  Ni               47         0.943238   0.058833   0.188484   x
            x  Ni               48         0.942746   0.184206   0.063079   x
            x  Ni               49         0.563651   0.433783   0.432840   x
            x  Ni               50         0.692611   0.309593   0.437736   x
            x  Ni               51         0.690932   0.433687   0.311878   x
            x  Ni               52         0.816577   0.434355   0.437471   x
            x  Ni               53         0.942347   0.309892   0.437886   x
            x  Ni               54         0.941905   0.434228   0.313016   x
            x  Ni               55         0.567445   0.684533   0.439105   x
            x  Ni               56         0.690522   0.558330   0.437354   x
            x  Ni               57         0.691777   0.682960   0.312035   x
            x  Ni               58         0.817360   0.682053   0.437733   x
            x  Ni               59         0.942028   0.558389   0.437734   x
            x  Ni               60         0.942264   0.682694   0.313168   x
            x  Ni               61         0.570522   0.932739   0.440232   x
            x  Ni               62         0.695252   0.807627   0.439487   x
            x  Ni               63         0.696967   0.933154   0.314368   x
            x  Ni               64         0.820084   0.932779   0.438926   x
            x  Ni               65         0.942847   0.807322   0.438142   x
            x  Ni               66         0.943130   0.933041   0.313576   x
            x  Ni               67         0.571318   0.182276   0.439169   x
            x  Ni               68         0.697557   0.058303   0.440097   x
            x  Ni               69         0.695485   0.183724   0.313331   x
            x  Ni               70         0.818897   0.185009   0.438518   x
            x  Ni               71         0.943143   0.058935   0.438227   x
            x  Ni               72         0.942563   0.184489   0.313352   x
            x  Ni               73         0.568024   0.433794   0.690703   x
            x  Ni               74         0.693263   0.308977   0.688394   x
            x  Ni               75         0.690451   0.434402   0.562163   x
            x  Ni               76         0.817123   0.434067   0.687524   x
            x  Ni               77         0.942567   0.309795   0.687440   x
            x  Ni               78         0.942114   0.434286   0.562586   x
            x  Ni               79         0.568204   0.684290   0.688881   x
            x  Ni               80         0.692467   0.558440   0.688829   x
            x  Ni               81         0.693187   0.682537   0.563299   x
            x  Ni               82         0.818069   0.682287   0.687964   x
            x  Ni               83         0.942235   0.558263   0.687647   x
            x  Ni               84         0.942405   0.682369   0.562724   x
            x  Ni               85         0.569615   0.934264   0.687091   x
            x  Ni               86         0.695692   0.808112   0.687127   x
            x  Ni               87         0.695999   0.933035   0.563648   x
[...]
            Ni 43  -- Ni 144                 0.01         0.00          2.58833
            Ni 14  -- Ni 39                  0.02         0.00          2.58845
            Ni 25  -- Ni 32                  0.03         0.00          2.58849
             Al 61 -- Ni 102                 0.16        -0.00          2.58863
            Ni 105 -- Ni 131                 0.02        -0.00          2.58874
             Al 5  -- Ni 108                 0.16         0.00          2.58874
            Ni 114 -- Ni 140                 0.05         0.00          2.58891
             Al 40 -- Ni 124                 0.20         0.00          2.58896
             Al 11 -- Ni 7                   0.20         0.00          2.58914
             Al 15 -- Ni 44                  0.20        -0.00          2.58926
            Ni 36  -- Ni 129                 0.11        -0.00          2.58943
             Al 40 -- Ni 145                 0.17         0.00          2.58959
            Ni 28  -- Ni 51                  0.04         0.00          2.58969
            Ni 110 -- Ni 136                 0.06        -0.00          2.58975
            Ni 142 -- Ni 143                 0.05        -0.00          2.59028
             Al 14 -- Ni 16                  0.19        -0.00          2.59057
            Ni 12  -- Ni 89                  0.03        -0.00          2.59070
            Ni 130 -- Ni 131                 0.12         0.00          2.59101
             Al 60 -- Ni 112                 0.17        -0.00          2.59128
             Al 48 -- Ni 141                 0.18        -0.00          2.59138
            Ni 104 -- Ni 177                 0.05        -0.00          2.59158
            Ni 133 -- Ni 135                 0.03         0.00          2.59169
            Ni 71  -- Ni 96                  0.01         0.00          2.59178
            Ni 37  -- Ni 38                  0.07         0.00          2.59192
            Ni 110 -- Ni 112                 0.05        -0.00          2.59199
            Ni 67  -- Ni 165                 0.02         0.00          2.59201
             Al 61 -- Ni 97                  0.18         0.00          2.59217
            Ni 128 -- Ni 144                 0.14         0.00          2.59263
            Ni 90  -- Ni 95                  0.01         0.00          2.59268
            Ni 183 -- Ni 185                 0.07        -0.00          2.59334
            Ni 169 -- Ni 171                -0.00        -0.00          2.59356
            Ni 13  -- Ni 120                 0.04         0.00          2.59356
             Al 40 -- Ni 163                 0.16        -0.00          2.59360
            Ni 101 -- Ni 144                 0.09         0.00          2.59360
            Ni 174 -- Ni 182                 0.00         0.00          2.59376
            Ni 34  -- Ni 41                  0.06         0.00          2.59427
             Al 27 -- Ni 49                  0.18        -0.00          2.59513
             Al 49 -- Ni 139                 0.18         0.00          2.59551
             Al 12 -- Ni 32                  0.20        -0.00          2.59557
             Al 16 -- Ni 40                  0.19        -0.00          2.59563
            Ni 116 -- Ni 118                 0.02        -0.00          2.59615
             Al 43 -- Ni 150                 0.18         0.00          2.59617
            Ni 26  -- Ni 43                  0.06         0.00          2.59620
            Ni 170 -- Ni 175                -0.01         0.00          2.59647
            Ni 145 -- Ni 170                -0.00         0.00          2.59651
             Al 51 -- Ni 124                 0.19         0.00          2.59665
            Ni 1   -- Ni 8                   0.03         0.00          2.59672
            Ni 129 -- Ni 132                 0.11        -0.00          2.59672
             Al 34 -- Ni 162                 0.16        -0.00          2.59686
            Ni 60  -- Ni 65                  0.01         0.00          2.59701
             Al 63 -- Ni 97                  0.17         0.00          2.59704
            Ni 155 -- Ni 156                 0.06         0.00          2.59707
            Ni 59  -- Ni 78                 -0.00         0.00          2.59710
            Ni 151 -- Ni 174                -0.04         0.00          2.59757
            Ni 41  -- Ni 66                 -0.03         0.00          2.59760
             Al 44 -- Ni 170                 0.16         0.00          2.59766
             Al 17 -- Ni 69                  0.18        -0.00          2.59770
            Ni 138 -- Ni 139                -0.01         0.00          2.59791
            Ni 13  -- Ni 139                -0.01         0.00          2.59800
            Ni 51  -- Ni 52                  0.03         0.00          2.59816
             Al 41 -- Ni 129                 0.20         0.00          2.59830
             Al 15 -- Ni 37                  0.19        -0.00          2.59830
            Ni 151 -- Ni 152                 0.04         0.00          2.59857
            Ni 35  -- Ni 129                 0.10         0.00          2.59894
             Al 56 -- Ni 128                 0.15        -0.00          2.59931
            Ni 111 -- Ni 186                 0.08         0.00          2.59937
            Ni 13  -- Ni 20                  0.06         0.00          2.59955
             Al 56 -- Ni 135                 0.15         0.00          2.59988
            Ni 49  -- Ni 75                  0.01         0.00          2.60028
            Ni 53  -- Ni 54                  0.00         0.00          2.60077
             Al 38 -- Ni 188                 0.17        -0.00          2.60080
            Ni 41  -- Ni 42                  0.03         0.00          2.60123
             Al 3  -- Ni 180                 0.17         0.00          2.60148
             Al 60 -- Ni 113                 0.19        -0.00          2.60189
             Al 58 -- Ni 117                 0.15        -0.00          2.60193
            Ni 112 -- Ni 122                 0.11         0.00          2.60241
             Al 50 -- Ni 142                 0.15        -0.00          2.60256
            Ni 133 -- Ni 160                -0.02         0.00          2.60260
            Ni 68  -- Ni 69                  0.03         0.00          2.60260
            Ni 150 -- Ni 178                 0.08         0.00          2.60287
            Ni 155 -- Ni 157                 0.07         0.00          2.60327
            Ni 123 -- Ni 124                 0.02        -0.00          2.60329
            Ni 13  -- Ni 39                  0.01         0.00          2.60362
            Ni 117 -- Ni 122                 0.03         0.00          2.60369
            Ni 99  -- Ni 169                 0.01        -0.00          2.60410
             Al 22 -- Ni 57                  0.19        -0.00          2.60449
            Ni 47  -- Ni 163                 0.06         0.00          2.60460
            Ni 54  -- Ni 59                  0.00         0.00          2.60465
            Ni 138 -- Ni 159                 0.02         0.00          2.60481
            Ni 111 -- Ni 115                 0.04         0.00          2.60513
            Ni 25  -- Ni 27                  0.00         0.00          2.60561
            Ni 95  -- Ni 96                  0.01         0.00          2.60626
            Ni 161 -- Ni 162                -0.01         0.00          2.60627
            Ni 55  -- Ni 181                 0.06         0.00          2.60682
            Ni 143 -- Ni 167                 0.01         0.00          2.60744
            Ni 152 -- Ni 158                 0.03         0.00          2.60757
            Ni 53  -- Ni 78                  0.00         0.00          2.60870
            Ni 113 -- Ni 139                 0.01         0.00          2.60873
             Al 55 -- Ni 31                  0.17         0.00          2.60900
             Al 9  -- Ni 43                  0.19        -0.00          2.60912
             Al 21 -- Ni 159                 0.16         0.00          2.60930
            Ni 147 -- Ni 170                -0.02         0.00          2.60949
             Al 9  -- Ni 144                 0.19         0.00          2.60966
             Al 38 -- Ni 177                 0.17         0.00          2.61005
            Ni 178 -- Ni 185                 0.08        -0.00          2.61012
            Ni 173 -- Ni 192                -0.01         0.00          2.61041
            Ni 129 -- Ni 130                 0.08         0.00          2.61060
             Al 34 -- Ni 122                 0.16        -0.00          2.61062
            Ni 169 -- Ni 172                 0.01         0.00          2.61067
            Ni 130 -- Ni 153                -0.01         0.00          2.61072
             Al 51 -- Ni 163                 0.16        -0.00          2.61147
            Ni 146 -- Ni 174                 0.01         0.00          2.61175
            Ni 71  -- Ni 90                  0.02         0.00          2.61190
            Ni 121 -- Ni 173                 0.01         0.00          2.61273
             Al 11 -- Ni 107                 0.16         0.00          2.61287
             Al 38 -- Ni 178                 0.17        -0.00          2.61313
             Al 17 -- Ni 43                  0.17        -0.00          2.61313
            Ni 172 -- Ni 177                -0.02         0.00          2.61320
            Ni 117 -- Ni 191                 0.08         0.00          2.61327
             Al 58 -- Ni 122                 0.18        -0.00          2.61363
            Ni 156 -- Ni 167                 0.11         0.00          2.61408
            Ni 178 -- Ni 184                 0.03         0.00          2.61443
            Ni 115 -- Ni 117                 0.09         0.00          2.61504
             Al 61 -- Ni 104                 0.15        -0.00          2.61569
            Ni 168 -- Ni 177                 0.03        -0.00          2.61580
             Al 46 -- Ni 153                 0.15         0.00          2.61640
             Al 53 -- Ni 137                 0.18         0.00          2.61645
             Al 48 -- Ni 120                 0.18        -0.00          2.61695
            Ni 127 -- Ni 134                 0.02         0.00          2.61717
            Ni 65  -- Ni 66                  0.02         0.00          2.61721
            Ni 138 -- Ni 160                 0.05         0.00          2.61788
            Ni 158 -- Ni 181                -0.01         0.00          2.61799
             Al 21 -- Ni 31                  0.19         0.00          2.61878
            Ni 178 -- Ni 179                 0.06         0.00          2.61905
            Ni 152 -- Ni 160                 0.02         0.00          2.61933
             Al 40 -- Ni 143                 0.18         0.00          2.61937
            Ni 130 -- Ni 149                -0.02         0.00          2.62017
             Al 35 -- Ni 122                 0.17         0.00          2.62052
             Al 36 -- Ni 122                 0.17         0.00          2.62152
            Ni 42  -- Ni 47                 -0.01         0.00          2.62165
            Ni 37  -- Ni 39                  0.01         0.00          2.62177
             Al 36 -- Ni 184                 0.17         0.00          2.62209
            Ni 110 -- Ni 118                 0.04        -0.00          2.62269
            Ni 140 -- Ni 141                 0.07        -0.00          2.62279
             Al 58 -- Ni 119                 0.16         0.00          2.62309
            Ni 102 -- Ni 109                -0.00         0.00          2.62376
             Al 5  -- Ni 7                   0.19         0.00          2.62394
            Ni 159 -- Ni 160                 0.09         0.00          2.62532
            Ni 136 -- Ni 141                 0.01        -0.00          2.62556
            Ni 65  -- Ni 148                 0.04         0.00          2.62608
             Al 43 -- Ni 155                 0.18        -0.00          2.62848
             Al 50 -- Ni 117                 0.14        -0.00          2.62877
             Al 47 -- Ni 150                 0.18        -0.00          2.62916
            Ni 156 -- Ni 157                 0.12        -0.00          2.62929
            Ni 102 -- Ni 108                 0.09         0.00          2.62956
            Ni 158 -- Ni 160                 0.11         0.00          2.63081
             Al 44 -- Ni 175                 0.16        -0.00          2.63092
             Al 5  -- Ni 115                 0.15         0.00          2.63119
            Ni 124 -- Ni 125                 0.03        -0.00          2.63155
            Ni 170 -- Ni 171                -0.02         0.00          2.63155
             Al 23 -- Ni 166                 0.14         0.00          2.63252
            Ni 134 -- Ni 135                 0.09         0.00          2.63390
             Al 52 -- Ni 37                  0.15         0.00          2.63450
            Ni 162 -- Ni 164                 0.01         0.00          2.63464
            Ni 154 -- Ni 155                 0.06         0.00          2.63490
            Ni 114 -- Ni 138                 0.00         0.00          2.63495
            Ni 108 -- Ni 111                 0.02         0.00          2.63497
             Al 38 -- Ni 182                 0.16         0.00          2.63541
             Al 63 -- Ni 100                 0.16         0.00          2.63716
             Al 52 -- Ni 31                  0.16         0.00          2.63857
             Al 39 -- Ni 178                 0.18        -0.00          2.63876
            Ni 155 -- Ni 188                 0.03         0.00          2.63942
            Ni 150 -- Ni 153                -0.01         0.00          2.63970
             Al 11 -- Ni 31                  0.17        -0.00          2.64003
             Al 37 -- Ni 190                 0.15         0.00          2.64010
            Ni 7   -- Ni 107                 0.01         0.00          2.64049
            Ni 31  -- Ni 32                  0.05         0.00          2.64122
             Al 23 -- Ni 159                 0.14         0.00          2.64158
            Ni 156 -- Ni 162                 0.13         0.00          2.64191
            Ni 126 -- Ni 127                -0.00         0.00          2.64239
            Ni 31  -- Ni 57                  0.07         0.00          2.64359
             Al 44 -- Ni 150                 0.14         0.00          2.64366
            Ni 114 -- Ni 133                -0.03         0.00          2.64491
             Al 48 -- Al 50                  0.25         0.00          2.64532
             Al 3  -- Ni 7                   0.18        -0.00          2.64533
             Al 59 -- Ni 7                   0.15         0.00          2.64538
             Al 46 -- Ni 147                 0.13         0.00          2.64688
            Ni 106 -- Ni 135                 0.03         0.00          2.64804
             Al 13 -- Ni 139                 0.16         0.00          2.64829
             Al 48 -- Al 49                  0.26         0.00          2.65069
             Al 50 -- Al 58                  0.24         0.00          2.65085
             Al 37 -- Ni 122                 0.16         0.00          2.65241
             Al 35 -- Ni 189                 0.15         0.00          2.65335
             Al 33 -- Ni 122                 0.15         0.00          2.65587
             Al 50 -- Ni 119                 0.13         0.00          2.65843
            Ni 7   -- Ni 8                   0.05         0.00          2.65967
             Al 35 -- Ni 190                 0.13         0.00          2.66051
            Ni 7   -- Ni 9                   0.06         0.00          2.66327
             Al 43 -- Ni 160                 0.15        -0.00          2.66615
             Al 42 -- Al 43                  0.25         0.00          2.66850
             Al 42 -- Ni 153                 0.16         0.00          2.67111
             Al 23 -- Al 49                  0.24         0.00          2.67206
             Al 38 -- Al 45                  0.23         0.00          2.68090
            Ni 168 -- Ni 169                 0.02        -0.00          2.68978
            Ni 148 -- Ni 150                 0.07         0.00          2.69053
             Al 45 -- Al 62                  0.21         0.00          2.69542
             Al 46 -- Al 56                  0.26         0.00          2.69607
            Ni 161 -- Ni 170                 0.02         0.00          2.70742
             Al 5  -- Al 59                  0.20         0.00          2.71308
             Al 56 -- Ni 130                 0.10         0.00          2.71542
             Al 19 -- Ni 31                  0.13        -0.00          2.71622
             Al 42 -- Al 45                  0.21         0.00          2.72026
             Al 11 -- Al 55                  0.20         0.00          2.72230
            Ni 164 -- Ni 170                 0.04         0.00          2.72313
             Al 36 -- Al 37                  0.22         0.00          2.72377
            Ni 149 -- Ni 150                 0.00         0.00          2.72527
             Al 56 -- Ni 124                 0.10         0.00          2.73324
             Al 55 -- Al 59                  0.20         0.00          2.73500
             Al 46 -- Al 47                  0.21         0.00          2.73514
             Al 34 -- Al 35                  0.19         0.00          2.73737
             Al 33 -- Al 35                  0.21         0.00          2.73831
             Al 33 -- Al 58                  0.20         0.00          2.74097
             Al 21 -- Al 52                  0.20         0.00          2.74452
             Al 34 -- Al 37                  0.19         0.00          2.74495
             Al 57 -- Al 63                  0.19        -0.00          2.74968
             Al 61 -- Al 63                  0.20        -0.00          2.75007
             Al 52 -- Al 55                  0.20         0.00          2.76073
             Al 47 -- Al 62                  0.18         0.00          2.76649
             Al 15 -- Al 49                  0.19         0.00          2.77151
             Al 44 -- Al 46                  0.20         0.00          2.77385
             Al 40 -- Al 51                  0.20         0.00          2.77848
             Al 53 -- Al 54                  0.18         0.00          2.78021
             Al 42 -- Ni 150                 0.11         0.00          2.78306
             Al 44 -- Al 45                  0.15         0.00          2.78545
             Al 41 -- Al 43                  0.16         0.00          2.78644
             Al 41 -- Al 53                  0.17         0.00          2.80213
             Al 43 -- Al 54                  0.16         0.00          2.80640
             Al 13 -- Al 59                  0.17         0.00          2.82995
             Al 13 -- Al 52                  0.17         0.00          2.83098
             Al 56 -- Al 57                  0.15        -0.00          2.84013
             Al 41 -- Al 54                  0.12        -0.00          2.86792
             Al 13 -- Al 55                  0.08         0.00          2.95510
================================================================================
 

Writing analysis data to castep.castep_bin

Writing model to castep.check
 
 A BibTeX formatted list of references used in this run has been written to 
 castep.bib
 
Initialisation time =     24.70 s
Calculation time    =  15645.60 s
Finalisation time   =     11.39 s
Total time          =  15681.69 s
Peak Memory Use     = 3973672 kB
 
Overall parallel efficiency rating: Satisfactory (67%)
 
Data was distributed by:-
G-vector (128-way); efficiency rating: Satisfactory (69%)
