 +-------------------------------------------------+
 |                                                 |
 |      CCC   AA    SSS  TTTTT  EEEEE  PPPP        |
 |     C     A  A  S       T    E      P   P       |
 |     C     AAAA   SS     T    EEE    PPPP        |
 |     C     A  A     S    T    E      P           |
 |      CCC  A  A  SSS     T    EEEEE  P           |
 |                                                 |
 +-------------------------------------------------+
 |                                                 |
 | Welcome to Academic Release CASTEP version 22.11|
 | Ab Initio Total Energy Program                  |
 |                                                 |
 | Authors:                                        |
 | M. Segall, M. Probert, C. Pickard, P. Hasnip,   |
 | S. Clark, K. Refson, J. R. Yates, M. Payne      |
 |                                                 |
 | Contributors:                                   |
 | P. Lindan, P. Haynes, J. White, V. Milman,      |
 | N. Govind, M. Gibson, P. Tulip, V. Cocula,      |
 | B. Montanari, D. Quigley, M. Glover,            |
 | L. Bernasconi, A. Perlov, M. Plummer,           |
 | E. McNellis, J. Meyer, J. Gale, D. Jochym       |
 | J. Aarons, B. Walker, R. Gillen, D. Jones       |
 | T. Green, I. J. Bush, C. J. Armstrong,          |
 | E. J. Higgins, E. L. Brown, M. S. McFly,        |
 | J. Wilkins, B-C. Shih, P. J. P. Byrne,          |
 | R. J. Maurer, J. C. Womack, J. Dziedzic,        |
 | A. Bartok-Partay, L. LeBlanc, T. K. Stenczel,   |
 | J. Kermode, S. Sturniolo, B. Shi, B. Durham     |
 | M. Evans, M. J. Smith                           |
 |                                                 |
 | Copyright (c) 2000 - 2021                       |
 |                                                 |
 |     Distributed under license from Cambridge    |
 |     Enterprise for academic use only.           |
 |                                                 |
 | Please cite                                     |
 |                                                 |
 |     "First principles methods using CASTEP"     |
 |                                                 |
 |         Zeitschrift fuer Kristallographie       |
 |           220(5-6) pp. 567-570 (2005)           |
 |                                                 |
 | S. J. Clark, M. D. Segall, C. J. Pickard,       |
 | P. J. Hasnip, M. J. Probert, K. Refson,         |
 | M. C. Payne                                     |
 |                                                 |
 |       in all publications arising from          |
 |              your use of CASTEP                 |
 |                                                 |
 +-------------------------------------------------+
 |                                                 |
 |              http://www.castep.org              |
 |                                                 |
 +-------------------------------------------------+
 
 
 
 Compiled for linux_x86_64_ifort on Wed, 18 Jan 2023 15:42:19 +0000
 from code version b807d1bba+  Castep221_branch  Wed Sep 14 11:18:35 2022 +0100
 Compiler: Intel Fortran 19.0.5.281; Optimisation: fast
 MATHLIBS: Intel MKL(2019.0.5) (LAPACK version 3.7.0)
 FFT Lib : mkl
 Fundamental constants values: CODATA 2014
 
 Run started: Wed, 26 Apr 2023 13:46:05 +0100
 
 Atomic calculation performed for Al: 1s2 2s2 2p6 3s2 3p1
 
 Converged in 52 iterations to an ae energy of -6606.982 eV
 
   ============================================================                
   | Pseudopotential Report - Date of generation 26-04-2023   |                
   ------------------------------------------------------------                
   | Element: Al Ionic charge:  3.00 Level of theory: RPBE    |                
   | Atomic Solver: Koelling-Harmon                           |                
   |                                                          |                
   |               Reference Electronic Structure             |                
   |         Orbital         Occupation         Energy        |                
   |            3s              2.000           -0.284        |                
   |            3p              1.000           -0.100        |                
   |                                                          |                
   |                 Pseudopotential Definition               |                
   |        Beta     l      e      Rc     scheme   norm       |                
   |          1      0   -0.284   2.192     qc      0         |                
   |          2      0    0.250   2.192     qc      0         |                
   |          3      1   -0.100   2.192     qc      0         |                
   |          4      1    0.250   2.192     qc      0         |                
   |          5      2    0.000   2.000     qc      0         |                
   |          6      2    0.250   2.000     qc      0         |                
   |         loc     3    0.000   2.192     pn      0         |                
   |                                                          |                
   | Augmentation charge Rinner = 1.398                       |                
   | Partial core correction Rc = 1.398                       |                
   ------------------------------------------------------------                
   | "3|2.2|2.2|1.4|4|5|5|30:31:32U2U2"                       |                
   ------------------------------------------------------------                
   |      Author: Chris J. Pickard, Cambridge University      |                
   ============================================================                
 
 Atomic calculation performed for Ni: 1s2 2s2 2p6 3s2 3p6 3d8 4s2
 
 Converged in 109 iterations to an ae energy of -41381.414 eV
 
   ============================================================                
   | Pseudopotential Report - Date of generation 26-04-2023   |                
   ------------------------------------------------------------                
   | Element: Ni Ionic charge: 10.00 Level of theory: RPBE    |                
   | Atomic Solver: Koelling-Harmon                           |                
   |                                                          |                
   |               Reference Electronic Structure             |                
   |         Orbital         Occupation         Energy        |                
   |            3d              8.000           -0.324        |                
   |            4s              2.000           -0.204        |                
   |                                                          |                
   |                 Pseudopotential Definition               |                
   |        Beta     l      e      Rc     scheme   norm       |                
   |          1      0   -0.204   2.401     qc      0         |                
   |          2      0    0.250   2.401     qc      0         |                
   |          3      1    0.000   2.401     qc      0         |                
   |          4      1    0.250   2.401     qc      0         |                
   |          5      2   -0.324   1.999     qc      0         |                
   |          6      2    0.250   1.999     qc      0         |                
   |         loc     3    0.000   2.401     pn      0         |                
   |                                                          |                
   | Augmentation charge Rinner = 1.001                       |                
   | Partial core correction Rc = 1.001                       |                
   ------------------------------------------------------------                
   | "3|2.4|2.4|1.0|8|9|10|40:41:32U2U2(qc=5.5)"              |                
   ------------------------------------------------------------                
   |      Author: Chris J. Pickard, Cambridge University      |                
   ============================================================                
 
 Pseudo atomic calculation performed for Al 3s2 3p1
 
 Converged in 13 iterations to a total energy of -107.6593 eV
 
 Pseudo atomic calculation performed for Ni 3d8 4s2
 
 Converged in 41 iterations to a total energy of -1369.7890 eV
 Calculation parallelised over 128 processes.
 Data is distributed by G-vector(128-way)

 ************************************ Title ************************************
 

 ***************************** General Parameters ******************************
  
 output verbosity                               : normal  (1)
 write checkpoint data to                       : castep.check
 type of calculation                            : geometry optimization
 stress calculation                             : off
 density difference calculation                 : off
 electron localisation func (ELF) calculation   : off
 Hirshfeld analysis                             : off
 polarisation (Berry phase) analysis            : off
 molecular orbital projected DOS                : off
 deltaSCF calculation                           : off
 unlimited duration calculation
 timing information                             : on
 memory usage estimate                          : on
 write extra output files                       : on
 write final potential to formatted file        : off
 write final density to formatted file          : off
 write BibTeX reference list                    : on
 write OTFG pseudopotential files               : on
 write electrostatic potential file             : on
 write bands file                               : on
 checkpoint writing                             : both castep_bin and check files
  
 output         length unit                     : A
 output           mass unit                     : amu
 output           time unit                     : ps
 output         charge unit                     : e
 output           spin unit                     : hbar/2
 output         energy unit                     : eV
 output          force unit                     : eV/A
 output       velocity unit                     : A/ps
 output       pressure unit                     : GPa
 output     inv_length unit                     : 1/A
 output      frequency unit                     : cm-1
 output force constant unit                     : eV/A**2
 output         volume unit                     : A**3
 output   IR intensity unit                     : (D/A)**2/amu
 output         dipole unit                     : D
 output         efield unit                     : eV/A/e
 output        entropy unit                     : J/mol/K
 output    efield chi2 unit                     : pm/V
  
 wavefunctions paging                           : none
 random number generator seed                   : randomised (134607609)
 data distribution                              : optimal for this architecture
 optimization strategy                          : maximize speed(+++)

 *********************** Exchange-Correlation Parameters ***********************
  
 using functional                               : revised Perdew Burke Ernzerhof
 relativistic treatment                         : Koelling-Harmon
 DFT+D: Semi-empirical dispersion correction    : off

 ************************* Pseudopotential Parameters **************************
  
 pseudopotential representation                 : reciprocal space
 <beta|phi> representation                      : reciprocal space
 spin-orbit coupling                            : off

 **************************** Basis Set Parameters *****************************
  
 plane wave basis set cut-off                   :   900.0000   eV
 size of standard grid                          :     1.7500
 size of   fine   gmax                          :    26.8966   1/A
 finite basis set correction                    : none

 **************************** Electronic Parameters ****************************
  
 number of  electrons                           :  2130.    
 net charge of system                           :  0.000    
 treating system as non-spin-polarized
 number of bands                                :       1177

 ********************* Electronic Minimization Parameters **********************
  
 Method: Treating system as metallic with density mixing treatment of electrons,
         and number of  SD  steps               :          1
         and number of  CG  steps               :          4
  
 total energy / atom convergence tol.           : 0.1000E-05   eV
 eigen-energy convergence tolerance             : 0.2167E-06   eV
 max force / atom convergence tol.              : ignored
 convergence tolerance window                   :          3   cycles
 max. number of SCF cycles                      :        200
 number of fixed-spin iterations                :         10
 smearing scheme                                : Gaussian
 smearing width                                 : 0.2000       eV
 Fermi energy convergence tolerance             : 0.2721E-13   eV
 periodic dipole correction                     : NONE
 periodically dump wavefunctions to             : castep.wvfn
 dump wavefunctions every                       :          1   SCF cycles

 ************************** Density Mixing Parameters **************************
  
 density-mixing scheme                          : Pulay
 max. length of mixing history                  :         20
 charge density mixing amplitude                : 0.8000    
 cut-off energy for mixing                      :  900.0       eV

 *********************** Population Analysis Parameters ************************
  
 Population analysis with cutoff                :  3.000       A
 Population analysis output                     : summary and pdos components

 ********************** Geometry Optimization Parameters ***********************
  
 optimization method                            : LBFGS
 max. no. of LBFGS updates                      : unbounded
 variable cell method                           : fixed basis quality
 max. number of steps                           :         30
 estimated bulk modulus                         :  500.0       GPa
 estimated <frequency>                          :  1668.       cm-1
 geom line minimiser                            : on
 with line minimiser tolerance                  :     0.4000
 total energy convergence tolerance             : 0.2000E-04   eV/atom
        max ionic |force| tolerance             : 0.5000E-01   eV/A
 max ionic |displacement| tolerance             : 0.1000E-02   A
   max |stress component| tolerance             : 0.1000       GPa
 convergence tolerance window                   :          2   steps
 backup results every                           :          5   steps
 write geom trajectory file                     : on

 *******************************************************************************
  
 
                           -------------------------------
                                      Unit Cell
                           -------------------------------
        Real Lattice(A)                      Reciprocal Lattice(1/A)
    14.4648280     0.0000000     0.0000000        0.434376773   0.000000000   0.000000000
     0.0000000    14.4648280     0.0000000        0.000000000   0.434376773   0.000000000
     0.0000000     0.0000000    14.4648280        0.000000000   0.000000000   0.434376773
 
                       Lattice parameters(A)       Cell Angles
                    a =     14.464828          alpha =   90.000000
                    b =     14.464828          beta  =   90.000000
                    c =     14.464828          gamma =   90.000000
 
                       Current cell volume =          3026.494030       A**3
                                   density =             4.316581   AMU/A**3
                                           =             7.167851     g/cm^3
 
                           -------------------------------
                                     Cell Contents
                           -------------------------------
                         Total number of ions in cell =  255
                      Total number of species in cell =    2
                        Max number of any one species =  195
 
            xxxxxxxxxxxxxxxxxxxxxxxxxxxxxxxxxxxxxxxxxxxxxxxxxxxxxxxxxxxx
            x  Element    Atom        Fractional coordinates of atoms  x
            x            Number           u          v          w      x
            x----------------------------------------------------------x
            x  Al           1         0.318111   0.309397   0.062332   x 
            x  Al           2         0.565654   0.311194   0.061079   x 
            x  Al           3         0.813997   0.311599   0.061083   x 
            x  Al           4         0.317299   0.561250   0.063702   x 
            x  Al           5         0.565000   0.560223   0.061518   x 
            x  Al           6         0.814345   0.560622   0.061099   x 
            x  Al           7         0.322725   0.811618   0.058206   x 
            x  Al           8         0.566505   0.809783   0.060649   x 
            x  Al           9         0.814497   0.809682   0.060750   x 
            x  Al          10         0.319658   0.060431   0.061330   x 
            x  Al          11         0.567373   0.061132   0.060301   x 
            x  Al          12         0.814123   0.060726   0.060779   x 
            x  Al          13         0.317017   0.307942   0.310554   x 
            x  Al          14         0.565217   0.310642   0.311800   x 
            x  Al          15         0.813744   0.311463   0.311387   x 
            x  Al          16         0.320762   0.556859   0.309757   x 
            x  Al          17         0.564100   0.560082   0.311839   x 
            x  Al          18         0.813961   0.560620   0.311435   x 
            x  Al          19         0.324746   0.816369   0.311006   x 
            x  Al          20         0.566597   0.810311   0.311416   x 
            x  Al          21         0.814028   0.809801   0.311261   x 
            x  Al          22         0.321773   0.059105   0.307232   x 
            x  Al          23         0.567375   0.060955   0.311224   x 
            x  Al          24         0.813806   0.060731   0.311144   x 
            x  Al          25         0.317692   0.308317   0.559997   x 
            x  Al          26         0.564484   0.311524   0.561217   x 
            x  Al          27         0.814312   0.311684   0.561395   x 
            x  Al          28         0.314756   0.561703   0.559371   x 
            x  Al          29         0.563498   0.560284   0.560956   x 
            x  Al          30         0.814655   0.560831   0.561532   x 
            x  Al          31         0.322066   0.811390   0.564103   x 
            x  Al          32         0.565982   0.809334   0.561886   x 
            x  Al          33         0.814687   0.809663   0.561719   x 
            x  Al          34         0.324545   0.059415   0.567145   x 
            x  Al          35         0.567033   0.060846   0.562038   x 
            x  Al          36         0.814427   0.060657   0.561613   x 
            x  Al          37         0.319040   0.310616   0.811850   x 
            x  Al          38         0.564524   0.312205   0.811082   x 
            x  Al          39         0.814791   0.311912   0.811007   x 
            x  Al          40         0.316346   0.560935   0.812736   x 
            x  Al          41         0.563970   0.559879   0.810913   x 
            x  Al          42         0.814826   0.560699   0.811062   x 
            x  Al          43         0.318114   0.810489   0.812343   x 
            x  Al          44         0.566632   0.809147   0.811404   x 
            x  Al          45         0.814836   0.809553   0.811221   x 
            x  Al          46         0.319964   0.059931   0.810971   x 
            x  Al          47         0.567441   0.061075   0.811839   x 
            x  Al          48         0.814790   0.060680   0.811153   x 
            x  Al          49         0.076082   0.184457   0.932276   x 
            x  Al          50         0.068885   0.937449   0.937534   x 
            x  Al          51         0.065992   0.691956   0.942137   x 
            x  Al          52         0.073512   0.686961   0.686826   x 
            x  Al          53         0.084649   0.430720   0.678653   x 
            x  Al          54         0.075949   0.557008   0.817858   x 
            x  Al          55         0.064941   0.062365   0.310188   x 
            x  Al          56         0.187823   0.059042   0.442927   x 
            x  Al          57         0.180885   0.816656   0.437659   x 
            x  Al          58         0.179559   0.679773   0.308180   x 
            x  Al          59         0.081950   0.432818   0.437140   x 
            x  Al          60         0.181765   0.818925   0.183374   x 
            x  Ni           1         0.315493   0.433564   0.185743   x 
            x  Ni           2         0.441597   0.309817   0.186483   x 
            x  Ni           3         0.441060   0.435441   0.062004   x 
            x  Ni           4         0.564850   0.435607   0.186954   x 
            x  Ni           5         0.689690   0.311337   0.186360   x 
            x  Ni           6         0.689434   0.436066   0.061167   x 
            x  Ni           7         0.813710   0.436190   0.186361   x 
            x  Ni           8         0.937664   0.311240   0.186282   x 
            x  Ni           9         0.938324   0.436111   0.061443   x 
            x  Ni          10         0.311948   0.689864   0.189417   x 
            x  Ni          11         0.440442   0.560916   0.186448   x 
            x  Ni          12         0.440950   0.685069   0.062297   x 
            x  Ni          13         0.565982   0.685016   0.186446   x 
            x  Ni          14         0.689343   0.560328   0.186556   x 
            x  Ni          15         0.689925   0.684744   0.061051   x 
            x  Ni          16         0.814067   0.684999   0.186032   x 
            x  Ni          17         0.938527   0.560591   0.186246   x 
            x  Ni          18         0.939338   0.685277   0.060899   x 
            x  Ni          19         0.316681   0.934601   0.183905   x 
            x  Ni          20         0.443290   0.810918   0.185326   x 
            x  Ni          21         0.443882   0.936196   0.060039   x 
            x  Ni          22         0.567599   0.935566   0.185455   x 
            x  Ni          23         0.690135   0.809871   0.186009   x 
            x  Ni          24         0.690701   0.935114   0.060607   x 
            x  Ni          25         0.813853   0.935051   0.185749   x 
            x  Ni          26         0.938155   0.810021   0.185769   x 
            x  Ni          27         0.938210   0.935236   0.060953   x 
            x  Ni          28         0.316426   0.184475   0.185603   x 
            x  Ni          29         0.443701   0.060316   0.184790   x 
            x  Ni          30         0.442253   0.185620   0.060791   x 
            x  Ni          31         0.566618   0.185976   0.185927   x 
            x  Ni          32         0.690611   0.060850   0.185846   x 
            x  Ni          33         0.690445   0.186538   0.060832   x 
            x  Ni          34         0.813707   0.186328   0.186074   x 
            x  Ni          35         0.937207   0.060801   0.185666   x 
            x  Ni          36         0.937718   0.186115   0.061182   x 
            x  Ni          37         0.309422   0.434020   0.439140   x 
            x  Ni          38         0.439186   0.309434   0.435891   x 
            x  Ni          39         0.439421   0.433810   0.312449   x 
            x  Ni          40         0.564131   0.435633   0.436588   x 
            x  Ni          41         0.689619   0.311339   0.436694   x 
            x  Ni          42         0.689165   0.435950   0.311690   x 
            x  Ni          43         0.813852   0.436311   0.436481   x 
            x  Ni          44         0.937940   0.311471   0.435909   x 
            x  Ni          45         0.938125   0.436221   0.311295   x 
            x  Ni          46         0.311229   0.690604   0.431417   x 
            x  Ni          47         0.438094   0.560863   0.435995   x 
            x  Ni          48         0.441097   0.685923   0.311135   x 
            x  Ni          49         0.565064   0.684938   0.436499   x 
            x  Ni          50         0.689205   0.560423   0.436564   x 
            x  Ni          51         0.689644   0.684938   0.311562   x 
            x  Ni          52         0.814209   0.685048   0.436713   x 
            x  Ni          53         0.938724   0.560788   0.436295   x 
            x  Ni          54         0.938184   0.685102   0.311176   x 
            x  Ni          55         0.315558   0.936970   0.438268   x 
            x  Ni          56         0.442286   0.811426   0.436975   x 
            x  Ni          57         0.444861   0.936890   0.311011   x 
            x  Ni          58         0.567477   0.935462   0.436925   x 
            x  Ni          59         0.690050   0.809794   0.436733   x 
            x  Ni          60         0.690398   0.935250   0.311305   x 
            x  Ni          61         0.814068   0.934993   0.436555   x 
            x  Ni          62         0.938398   0.809849   0.436291   x 
            x  Ni          63         0.937041   0.935205   0.310618   x 
            x  Ni          64         0.316369   0.179773   0.436139   x 
            x  Ni          65         0.442839   0.059640   0.436822   x 
            x  Ni          66         0.442374   0.184735   0.311031   x 
            x  Ni          67         0.566133   0.185889   0.436521   x 
            x  Ni          68         0.690658   0.060799   0.436793   x 
            x  Ni          69         0.690157   0.186208   0.311414   x 
            x  Ni          70         0.813748   0.186375   0.436470   x 
            x  Ni          71         0.937287   0.060978   0.435782   x 
            x  Ni          72         0.937413   0.186274   0.311008   x 
            x  Ni          73         0.311031   0.435777   0.681143   x 
            x  Ni          74         0.440018   0.311581   0.686062   x 
            x  Ni          75         0.438352   0.435670   0.560203   x 
            x  Ni          76         0.563974   0.436341   0.685792   x 
            x  Ni          77         0.689767   0.311908   0.686220   x 
            x  Ni          78         0.689334   0.436221   0.561368   x 
            x  Ni          79         0.814643   0.436626   0.686222   x 
            x  Ni          80         0.938618   0.311562   0.686019   x 
            x  Ni          81         0.938818   0.436682   0.561013   x 
            x  Ni          82         0.314842   0.686519   0.687450   x 
            x  Ni          83         0.437928   0.560312   0.685684   x 
            x  Ni          84         0.439185   0.684944   0.560358   x 
            x  Ni          85         0.564769   0.684036   0.686060   x 
            x  Ni          86         0.689441   0.560347   0.686056   x 
            x  Ni          87         0.689657   0.684697   0.561498   x 
            x  Ni          88         0.814790   0.684931   0.686414   x 
            x  Ni          89         0.940299   0.561279   0.686508   x 
            x  Ni          90         0.939886   0.685371   0.561728   x 
            x  Ni          91         0.317919   0.934717   0.688579   x 
            x  Ni          92         0.442664   0.809616   0.687811   x 
            x  Ni          93         0.444392   0.935140   0.562700   x 
            x  Ni          94         0.567499   0.934764   0.687247   x 
            x  Ni          95         0.690253   0.809323   0.686452   x 
            x  Ni          96         0.690520   0.935023   0.561905   x 
            x  Ni          97         0.814767   0.934797   0.686576   x 
            x  Ni          98         0.939830   0.809736   0.686706   x 
            x  Ni          99         0.938359   0.934914   0.561242   x 
            x  Ni         100         0.318711   0.184260   0.687512   x 
            x  Ni         101         0.444966   0.060289   0.688421   x 
            x  Ni         102         0.442896   0.185714   0.561659   x 
            x  Ni         103         0.566305   0.187000   0.686840   x 
            x  Ni         104         0.690583   0.060915   0.686617   x 
            x  Ni         105         0.689983   0.186479   0.561660   x 
            x  Ni         106         0.814215   0.186540   0.686265   x 
            x  Ni         107         0.937992   0.060809   0.686388   x 
            x  Ni         108         0.937967   0.186364   0.560907   x 
            x  Ni         109         0.315418   0.435779   0.939018   x 
            x  Ni         110         0.440666   0.310963   0.936717   x 
            x  Ni         111         0.437844   0.436388   0.810481   x 
            x  Ni         112         0.564531   0.436055   0.935841   x 
            x  Ni         113         0.689964   0.311789   0.935779   x 
            x  Ni         114         0.689539   0.436270   0.810884   x 
            x  Ni         115         0.814388   0.436429   0.935977   x 
            x  Ni         116         0.938295   0.311363   0.936461   x 
            x  Ni         117         0.939548   0.436798   0.811286   x 
            x  Ni         118         0.315600   0.686281   0.937188   x 
            x  Ni         119         0.439871   0.560420   0.937150   x 
            x  Ni         120         0.440595   0.684520   0.811623   x 
            x  Ni         121         0.565477   0.684272   0.936288   x 
            x  Ni         122         0.689628   0.560255   0.935985   x 
            x  Ni         123         0.689812   0.684359   0.811066   x 
            x  Ni         124         0.814637   0.684961   0.935948   x 
            x  Ni         125         0.939521   0.560994   0.936181   x 
            x  Ni         126         0.940045   0.685346   0.811356   x 
            x  Ni         127         0.317009   0.936252   0.935409   x 
            x  Ni         128         0.443103   0.810098   0.935453   x 
            x  Ni         129         0.443411   0.935024   0.811974   x 
            x  Ni         130         0.567402   0.935406   0.935771   x 
            x  Ni         131         0.690309   0.809510   0.935952   x 
            x  Ni         132         0.691051   0.934988   0.811274   x 
            x  Ni         133         0.814721   0.934844   0.935887   x 
            x  Ni         134         0.939672   0.809903   0.936014   x 
            x  Ni         135         0.939377   0.934782   0.811553   x 
            x  Ni         136         0.316146   0.184398   0.936360   x 
            x  Ni         137         0.442739   0.060877   0.935831   x 
            x  Ni         138         0.442306   0.186216   0.812017   x 
            x  Ni         139         0.566542   0.186651   0.935985   x 
            x  Ni         140         0.691100   0.060973   0.935793   x 
            x  Ni         141         0.690482   0.186919   0.811119   x 
            x  Ni         142         0.814264   0.186504   0.935917   x 
            x  Ni         143         0.938169   0.060696   0.936372   x 
            x  Ni         144         0.938289   0.186284   0.811239   x 
            x  Ni         145         0.059701   0.434116   0.183275   x 
            x  Ni         146         0.190321   0.307768   0.186357   x 
            x  Ni         147         0.064528   0.559892   0.060115   x 
            x  Ni         148         0.067538   0.306281   0.059775   x 
            x  Ni         149         0.062362   0.686731   0.181794   x 
            x  Ni         150         0.189778   0.560207   0.185043   x 
            x  Ni         151         0.192022   0.688753   0.064071   x 
            x  Ni         152         0.063888   0.815043   0.060653   x 
            x  Ni         153         0.061089   0.940958   0.183308   x 
            x  Ni         154         0.065680   0.813186   0.307980   x 
            x  Ni         155         0.192254   0.938003   0.060349   x 
            x  Ni         156         0.063022   0.063862   0.057863   x 
            x  Ni         157         0.062089   0.181879   0.184065   x 
            x  Ni         158         0.190692   0.059063   0.185784   x 
            x  Ni         159         0.192504   0.183853   0.061766   x 
            x  Ni         160         0.195056   0.305056   0.434575   x 
            x  Ni         161         0.191313   0.434480   0.307683   x 
            x  Ni         162         0.067403   0.308554   0.310041   x 
            x  Ni         163         0.063838   0.682123   0.436332   x 
            x  Ni         164         0.193200   0.562118   0.432211   x 
            x  Ni         165         0.061899   0.554749   0.307508   x 
            x  Ni         166         0.062452   0.939881   0.438101   x 
            x  Ni         167         0.191472   0.938384   0.312100   x 
            x  Ni         168         0.065410   0.184911   0.437615   x 
            x  Ni         169         0.191175   0.180596   0.311147   x 
            x  Ni         170         0.197986   0.307292   0.684860   x 
            x  Ni         171         0.073011   0.312436   0.559573   x 
            x  Ni         172         0.194235   0.562288   0.686402   x 
            x  Ni         173         0.192469   0.687608   0.558530   x 
            x  Ni         174         0.073168   0.554962   0.560832   x 
            x  Ni         175         0.065751   0.933738   0.686534   x 
            x  Ni         176         0.193265   0.811500   0.684864   x 
            x  Ni         177         0.191761   0.935480   0.563192   x 
            x  Ni         178         0.063476   0.807995   0.561679   x 
            x  Ni         179         0.068322   0.187982   0.688144   x 
            x  Ni         180         0.193710   0.059505   0.685508   x 
            x  Ni         181         0.193144   0.182981   0.562438   x 
            x  Ni         182         0.065499   0.061592   0.565870   x 
            x  Ni         183         0.068165   0.433432   0.937342   x 
            x  Ni         184         0.195284   0.309707   0.937377   x 
            x  Ni         185         0.195488   0.434524   0.812525   x 
            x  Ni         186         0.071648   0.311961   0.810463   x 
            x  Ni         187         0.190081   0.433817   0.063784   x 
            x  Ni         188         0.191124   0.686725   0.814228   x 
            x  Ni         189         0.192805   0.561951   0.941617   x 
            x  Ni         190         0.192439   0.812610   0.938655   x 
            x  Ni         191         0.192243   0.935831   0.810940   x 
            x  Ni         192         0.068669   0.811430   0.811232   x 
            x  Ni         193         0.067740   0.059845   0.809256   x 
            x  Ni         194         0.193755   0.059534   0.935782   x 
            x  Ni         195         0.194478   0.184431   0.809817   x 
            xxxxxxxxxxxxxxxxxxxxxxxxxxxxxxxxxxxxxxxxxxxxxxxxxxxxxxxxxxxx
 
 
                         No user defined ionic velocities
 
                           -------------------------------
                                   Details of Species
                           -------------------------------
 
                               Mass of species in AMU
                                    Al   26.9815400
                                    Ni   58.6934000
 
                          Electric Quadrupole Moment (Barn)
                                    Al    0.1466000 Isotope 27
                                    Ni    0.1620000 Isotope 61
 
                          Files used for pseudopotentials:
                                    Al 3|2.2|2.2|1.4|4|5|5|30:31:32U2U2
                                    Ni 3|2.4|2.4|1.0|8|9|10|40:41:32U2U2(qc=5.5)
 
                           -------------------------------
                              k-Points For BZ Sampling
                           -------------------------------
                       MP grid size for SCF calculation is  1  1  1
                            with an offset of   0.000  0.000  0.000
                       Number of kpoints used =             1
 
                           -------------------------------
                               Symmetry and Constraints
                           -------------------------------
 
                      Maximum deviation from symmetry =  0.00000         ANG
 
                      Number of symmetry operations   =           1
                      Number of ionic constraints     =           3
                      Point group of crystal =     1: C1, 1, 1
                      Space group of crystal =     1: P1, P 1
 
             Set iprint > 1 for details on symmetry rotations/translations
 
                         Centre of mass is constrained
             Set iprint > 1 for details of linear ionic constraints
 
                         Number of cell constraints= 6
                         Cell constraints are:  0 0 0 0 0 0
 
                         External pressure/stress (GPa)
                          0.00000   0.00000   0.00000
                                    0.00000   0.00000
                                              0.00000
 
+---------------- MEMORY AND SCRATCH DISK ESTIMATES PER PROCESS --------------+
|                                                     Memory          Disk    |
| Baseline code, static data and system overhead      855.0 MB         0.0 MB |
| BLAS internal memory storage                          0.0 MB         0.0 MB |
| Model and support data                              335.5 MB         0.0 MB |
| Electronic energy minimisation requirements          68.2 MB         0.0 MB |
| Force calculation requirements                        1.7 MB         0.0 MB |
|                                               ----------------------------- |
| Approx. total storage required per process         1258.8 MB         0.0 MB |
|                                                                             |
| Requirements will fluctuate during execution and may exceed these estimates |
+-----------------------------------------------------------------------------+
Calculating approximate eigenstates for fixed initial Hamiltonian
Cut-off for approx. calculation is  550.359 eV
Resetting cut-off to  900.000 eV
Calculating total energy with cut-off of  900.000 eV.
------------------------------------------------------------------------ <-- SCF
SCF loop      Energy           Fermi           Energy gain       Timer   <-- SCF
                               energy          per atom          (sec)   <-- SCF
------------------------------------------------------------------------ <-- SCF
Initial  -2.75731234E+005  0.00000000E+000                      1399.35  <-- SCF
      1  -2.75117532E+005  3.10024098E+000  -2.40667466E+000    1432.15  <-- SCF
      2  -2.75290652E+005  2.99295619E+000   6.78903207E-001    1477.48  <-- SCF
      3  -2.76497196E+005  8.86963730E+000   4.73154661E+000    1525.93  <-- SCF
      4  -2.76553860E+005  8.90666938E+000   2.22209961E-001    1567.10  <-- SCF
      5  -2.75442073E+005  6.21370209E+000  -4.35994728E+000    1620.73  <-- SCF
      6  -2.75561076E+005  6.22548525E+000   4.66676435E-001    1657.88  <-- SCF
      7  -2.75249841E+005  4.77929752E+000  -1.22052877E+000    1704.96  <-- SCF
      8  -2.75193629E+005  4.38079419E+000  -2.20437205E-001    1740.73  <-- SCF
      9  -2.75185098E+005  4.32654459E+000  -3.34579202E-002    1776.43  <-- SCF
     10  -2.75189286E+005  4.38785452E+000   1.64240583E-002    1813.77  <-- SCF
     11  -2.75187962E+005  4.35052941E+000  -5.19237418E-003    1856.72  <-- SCF
     12  -2.75183875E+005  4.32074687E+000  -1.60251158E-002    1892.35  <-- SCF
     13  -2.75186143E+005  4.32796997E+000   8.89362781E-003    1928.42  <-- SCF
     14  -2.75187066E+005  4.28445344E+000   3.62092488E-003    1969.00  <-- SCF
     15  -2.75183149E+005  4.25903358E+000  -1.53628735E-002    2017.49  <-- SCF
     16  -2.75182453E+005  4.25959065E+000  -2.72794497E-003    2056.17  <-- SCF
     17  -2.75182669E+005  4.26568644E+000   8.45660449E-004    2095.94  <-- SCF
     18  -2.75182151E+005  4.26987721E+000  -2.03186457E-003    2130.13  <-- SCF
     19  -2.75182103E+005  4.26902788E+000  -1.87704716E-004    2164.56  <-- SCF
     20  -2.75182092E+005  4.27085576E+000  -4.44207191E-005    2202.83  <-- SCF
     21  -2.75182056E+005  4.27035384E+000  -1.41102218E-004    2239.70  <-- SCF
     22  -2.75182060E+005  4.27080422E+000   1.73327841E-005    2281.34  <-- SCF
     23  -2.75182058E+005  4.27185257E+000  -6.50795425E-006    2315.33  <-- SCF
     24  -2.75182050E+005  4.27174327E+000  -3.25371673E-005    2350.36  <-- SCF
     25  -2.75182052E+005  4.27171280E+000   6.08718690E-006    2388.02  <-- SCF
     26  -2.75182051E+005  4.27149720E+000  -4.28279748E-006    2418.80  <-- SCF
     27  -2.75182049E+005  4.27141611E+000  -4.44940591E-006    2442.57  <-- SCF
     28  -2.75182050E+005  4.27109346E+000   2.87639038E-007    2464.84  <-- SCF
     29  -2.75182050E+005  4.27134470E+000  -9.35872138E-008    2490.68  <-- SCF
------------------------------------------------------------------------ <-- SCF
 
Final energy, E             =  -275176.3947827     eV
Final free energy (E-TS)    =  -275182.0495130     eV
(energies not corrected for finite basis set)
 
NB est. 0K energy (E-0.5TS)      =  -275179.2221478     eV
 

Writing analysis data to castep.castep_bin

Writing model to castep.check
 
+---------------- MEMORY AND SCRATCH DISK ESTIMATES PER PROCESS --------------+
|                                                     Memory          Disk    |
| Model and support data                              346.2 MB         0.0 MB |
| Electronic energy minimisation requirements          68.2 MB         0.0 MB |
| Geometry minimisation requirements                   83.0 MB         0.0 MB |
|                                               ----------------------------- |
| Approx. total storage required per process          497.4 MB         0.0 MB |
|                                                                             |
| Requirements will fluctuate during execution and may exceed these estimates |
+-----------------------------------------------------------------------------+
 
 
 ************************************** Forces **************************************
 *                                                                                  *
 *                           Cartesian components (eV/A)                            *
 * -------------------------------------------------------------------------------- *
 *                         x                    y                    z              *
 *                                                                                  *
 * Al              1     -0.15601             -0.00316             -0.01082         *
 * Al              2      0.01635             -0.00837              0.00973         *
 * Al              3      0.04319              0.00389              0.00906         *
 * Al              4     -0.12445             -0.01886              0.03915         *
 * Al              5      0.04368             -0.00901              0.01290         *
 * Al              6      0.01407             -0.01984              0.01716         *
 * Al              7     -0.08880              0.01292             -0.11309         *
 * Al              8      0.02258              0.01323             -0.00479         *
 * Al              9      0.05280              0.01289              0.04346         *
 * Al             10     -0.16302              0.02009             -0.01836         *
 * Al             11      0.02311              0.00786             -0.01316         *
 * Al             12      0.02601              0.01003              0.01665         *
 * Al             13     -0.11390              0.05142             -0.03122         *
 * Al             14      0.04376             -0.00094             -0.00639         *
 * Al             15      0.04561             -0.00587             -0.01836         *
 * Al             16     -0.06634             -0.15053             -0.01468         *
 * Al             17      0.03431             -0.01345             -0.01332         *
 * Al             18      0.04541             -0.00114             -0.02861         *
 * Al             19      0.37559              0.07509             -0.00477         *
 * Al             20     -0.00050             -0.01233             -0.01208         *
 * Al             21      0.04939              0.02074             -0.00078         *
 * Al             22     -0.04525              0.00761             -0.11700         *
 * Al             23      0.01778              0.02730             -0.00183         *
 * Al             24      0.07386             -0.01158              0.00726         *
 * Al             25     -0.21355              0.06687              0.01450         *
 * Al             26      0.04570              0.00782              0.00308         *
 * Al             27      0.04306             -0.03168              0.01338         *
 * Al             28     -0.16646             -0.09005             -0.01440         *
 * Al             29      0.04810             -0.02006              0.01079         *
 * Al             30      0.01202             -0.01049              0.00475         *
 * Al             31     -0.05360              0.03302              0.12240         *
 * Al             32      0.03722              0.00368              0.02132         *
 * Al             33      0.07953              0.01298             -0.02615         *
 * Al             34     -0.00500              0.00380              0.12375         *
 * Al             35      0.01343              0.00555              0.00698         *
 * Al             36      0.05229              0.01250              0.00095         *
 * Al             37     -0.12726             -0.04358              0.01688         *
 * Al             38      0.03756             -0.03243             -0.01165         *
 * Al             39      0.02194             -0.01909             -0.01278         *
 * Al             40     -0.10877             -0.02754             -0.00066         *
 * Al             41      0.02379              0.00564             -0.01380         *
 * Al             42      0.03691             -0.02231             -0.00251         *
 * Al             43     -0.12806              0.04238             -0.00750         *
 * Al             44      0.03416              0.02903             -0.00779         *
 * Al             45      0.03930              0.03187             -0.02804         *
 * Al             46     -0.17994              0.02898              0.00753         *
 * Al             47      0.03056             -0.00079              0.01208         *
 * Al             48      0.04136              0.01598             -0.04232         *
 * Al             49     -0.94137              0.15789              0.11848         *
 * Al             50     -0.39931             -0.04174             -0.20952         *
 * Al             51     -0.00057              0.03966              0.14455         *
 * Al             52     -0.65183              0.28014             -0.55931         *
 * Al             53     -0.75505             -0.09474             -0.29192         *
 * Al             54     -0.73699             -0.46661              0.03306         *
 * Al             55     -0.85224             -0.14740             -0.45289         *
 * Al             56     -0.06850              0.13067              0.12914         *
 * Al             57     -0.23714              0.06376              0.16896         *
 * Al             58     -0.26131             -0.19452              0.00902         *
 * Al             59     -0.86092              0.06873              0.18036         *
 * Al             60     -0.16033              0.05580             -0.20038         *
 * Ni              1      0.03621              0.06439             -0.05175         *
 * Ni              2     -0.02862             -0.00598              0.00765         *
 * Ni              3     -0.00863              0.01414              0.02131         *
 * Ni              4     -0.01817             -0.01091              0.00271         *
 * Ni              5      0.04171             -0.00887              0.00309         *
 * Ni              6     -0.00152              0.00279              0.00718         *
 * Ni              7      0.05066             -0.00514             -0.02288         *
 * Ni              8      0.32379             -0.15294             -0.02326         *
 * Ni              9      0.26652             -0.09102             -0.17652         *
 * Ni             10      0.11343              0.19806              0.33269         *
 * Ni             11     -0.00432             -0.01562              0.01331         *
 * Ni             12      0.01133              0.00786             -0.00492         *
 * Ni             13     -0.05952             -0.01215             -0.00016         *
 * Ni             14      0.04570              0.00404             -0.00314         *
 * Ni             15      0.02514             -0.00084              0.00631         *
 * Ni             16      0.05176              0.00096              0.06552         *
 * Ni             17      0.12649             -0.02250             -0.10815         *
 * Ni             18     -0.00903              0.02050              0.08651         *
 * Ni             19      0.10282             -0.15624              0.19160         *
 * Ni             20     -0.06832              0.00293              0.01009         *
 * Ni             21     -0.09967             -0.02388              0.03564         *
 * Ni             22     -0.06430              0.00306              0.02277         *
 * Ni             23      0.04455              0.00325             -0.00498         *
 * Ni             24      0.03900              0.00942             -0.00416         *
 * Ni             25      0.04584             -0.00023              0.04043         *
 * Ni             26      0.18096              0.11542             -0.07917         *
 * Ni             27      0.16303              0.11055              0.04153         *
 * Ni             28      0.01179             -0.00900              0.10047         *
 * Ni             29      0.03260              0.02368             -0.00006         *
 * Ni             30     -0.02242             -0.00382              0.02371         *
 * Ni             31     -0.02198              0.01462              0.00537         *
 * Ni             32      0.02066             -0.00270             -0.00747         *
 * Ni             33      0.02196             -0.00179              0.00333         *
 * Ni             34      0.05868              0.00394              0.02359         *
 * Ni             35      0.02028              0.07115             -0.12431         *
 * Ni             36      0.28915              0.03288             -0.03678         *
 * Ni             37      0.20842              0.05472             -0.22066         *
 * Ni             38      0.06890              0.04829              0.03301         *
 * Ni             39      0.06149             -0.00315             -0.03192         *
 * Ni             40      0.01470              0.00403             -0.02336         *
 * Ni             41      0.03123              0.00541             -0.00684         *
 * Ni             42      0.02774             -0.00466              0.00197         *
 * Ni             43      0.11545              0.00088             -0.01731         *
 * Ni             44      0.49339             -0.04965              0.06458         *
 * Ni             45      0.20282             -0.26146              0.03576         *
 * Ni             46      0.14988              0.21401             -0.27748         *
 * Ni             47      0.00607             -0.02256              0.03691         *
 * Ni             48     -0.06517              0.02958              0.00513         *
 * Ni             49     -0.05703             -0.02139             -0.00556         *
 * Ni             50      0.04336             -0.00627              0.00301         *
 * Ni             51      0.01448             -0.00716             -0.00571         *
 * Ni             52      0.08614              0.00657             -0.03710         *
 * Ni             53      0.36290             -0.12504              0.05549         *
 * Ni             54      0.35782              0.00122             -0.03607         *
 * Ni             55      0.25998             -0.04863             -0.08922         *
 * Ni             56      0.03690             -0.03486             -0.00054         *
 * Ni             57     -0.10145             -0.00326              0.00347         *
 * Ni             58     -0.06277             -0.00910              0.00011         *
 * Ni             59      0.02835             -0.01093              0.00688         *
 * Ni             60      0.03454              0.00037             -0.01654         *
 * Ni             61      0.06677             -0.00706             -0.00109         *
 * Ni             62      0.27876              0.02594              0.01089         *
 * Ni             63      0.24662              0.02465              0.04590         *
 * Ni             64      0.10221             -0.06929              0.01810         *
 * Ni             65      0.07033              0.00945             -0.01571         *
 * Ni             66     -0.06212             -0.00499              0.00903         *
 * Ni             67     -0.02901              0.01952              0.00362         *
 * Ni             68      0.00860              0.01321              0.00506         *
 * Ni             69      0.01780              0.00908             -0.01245         *
 * Ni             70      0.08529             -0.00040              0.01180         *
 * Ni             71      0.22169              0.08946              0.19369         *
 * Ni             72      0.28299              0.11493              0.03961         *
 * Ni             73      0.18975             -0.05402              0.15612         *
 * Ni             74     -0.02035             -0.03541             -0.03410         *
 * Ni             75     -0.11754              0.01278             -0.01176         *
 * Ni             76      0.01040             -0.00546              0.02353         *
 * Ni             77      0.01961             -0.01033              0.00307         *
 * Ni             78      0.01270              0.00088              0.00939         *
 * Ni             79      0.11618             -0.05390              0.00797         *
 * Ni             80      0.53364             -0.00971             -0.01790         *
 * Ni             81      0.64203             -0.08395              0.02020         *
 * Ni             82      0.08086             -0.00038             -0.14232         *
 * Ni             83      0.00334              0.02174             -0.05604         *
 * Ni             84      0.02719              0.03100              0.01168         *
 * Ni             85     -0.01117              0.01429              0.02034         *
 * Ni             86      0.02453             -0.00107             -0.00643         *
 * Ni             87      0.01864             -0.00333              0.01302         *
 * Ni             88      0.09477              0.02128             -0.03705         *
 * Ni             89      0.69588             -0.12712              0.00806         *
 * Ni             90      0.19839             -0.13565             -0.00962         *
 * Ni             91      0.06670              0.06832             -0.15118         *
 * Ni             92     -0.02537              0.02169             -0.00459         *
 * Ni             93     -0.12486             -0.00996             -0.03794         *
 * Ni             94     -0.04327              0.01035             -0.01559         *
 * Ni             95      0.03718              0.00034              0.00628         *
 * Ni             96      0.03768              0.00022              0.01827         *
 * Ni             97      0.03197              0.05440             -0.01705         *
 * Ni             98      0.15594              0.07128              0.09110         *
 * Ni             99      0.31170              0.07295              0.06718         *
 * Ni            100      0.08906             -0.02349             -0.14226         *
 * Ni            101     -0.01342             -0.00852              0.00357         *
 * Ni            102     -0.04673             -0.03327             -0.01590         *
 * Ni            103     -0.00467             -0.01851             -0.00492         *
 * Ni            104      0.02008              0.01112              0.00257         *
 * Ni            105      0.02163              0.00087              0.01679         *
 * Ni            106      0.07062             -0.03709             -0.03009         *
 * Ni            107      0.31356              0.02161              0.10210         *
 * Ni            108      0.40520              0.03340              0.08835         *
 * Ni            109      0.09103              0.01727              0.05490         *
 * Ni            110      0.01262             -0.00332             -0.00581         *
 * Ni            111      0.07549             -0.02007              0.02955         *
 * Ni            112     -0.00160              0.00596             -0.00327         *
 * Ni            113      0.00157             -0.01516             -0.00251         *
 * Ni            114      0.01979             -0.00834             -0.00953         *
 * Ni            115      0.05615             -0.04173              0.04898         *
 * Ni            116      0.47537              0.03201             -0.07691         *
 * Ni            117      0.53550             -0.10426             -0.05195         *
 * Ni            118      0.05838             -0.04759              0.11024         *
 * Ni            119      0.01916              0.01560              0.01134         *
 * Ni            120     -0.01754              0.02240             -0.00828         *
 * Ni            121     -0.01908             -0.00473             -0.01151         *
 * Ni            122      0.00932             -0.00380              0.00540         *
 * Ni            123      0.03458              0.01575             -0.00871         *
 * Ni            124      0.08543             -0.02807              0.03326         *
 * Ni            125      0.39665             -0.15512             -0.02887         *
 * Ni            126      0.58053             -0.08662             -0.03934         *
 * Ni            127      0.08544             -0.02033              0.04693         *
 * Ni            128     -0.02129              0.00005             -0.00493         *
 * Ni            129     -0.02749              0.00352             -0.01076         *
 * Ni            130     -0.03148              0.00113              0.00279         *
 * Ni            131      0.03744              0.01435             -0.00837         *
 * Ni            132      0.02482             -0.00513              0.00835         *
 * Ni            133      0.05166              0.02573             -0.01496         *
 * Ni            134     -0.01267              0.18101             -0.11295         *
 * Ni            135      0.28237              0.05238             -0.11057         *
 * Ni            136      0.11475              0.06420             -0.00897         *
 * Ni            137     -0.00971             -0.01768              0.01149         *
 * Ni            138     -0.02519             -0.00727             -0.03125         *
 * Ni            139     -0.01719             -0.00057              0.00116         *
 * Ni            140      0.00804             -0.00192              0.00152         *
 * Ni            141      0.02530             -0.00247             -0.00255         *
 * Ni            142      0.08561              0.03086             -0.02285         *
 * Ni            143      0.26300              0.08469             -0.11981         *
 * Ni            144      0.45921              0.04046             -0.06832         *
 * Ni            145      0.48146             -0.04999              0.23370         *
 * Ni            146     -0.22274              0.04278             -0.06770         *
 * Ni            147      0.00978             -0.04503              0.19021         *
 * Ni            148     -0.25851              0.22710              0.13130         *
 * Ni            149      0.08050             -0.11773              0.15817         *
 * Ni            150     -0.14981             -0.12593             -0.00682         *
 * Ni            151     -0.07132             -0.05844              0.05340         *
 * Ni            152     -0.29899             -0.12668              0.09077         *
 * Ni            153      0.06859             -0.13896              0.20507         *
 * Ni            154     -0.28953             -0.18821              0.26142         *
 * Ni            155     -0.09247              0.04637              0.17199         *
 * Ni            156      0.10757             -0.16906              0.32193         *
 * Ni            157      0.25189              0.35338              0.07405         *
 * Ni            158     -0.04282              0.08612             -0.26257         *
 * Ni            159     -0.14493             -0.01309              0.21624         *
 * Ni            160     -0.26319             -0.27361              0.05781         *
 * Ni            161     -0.04278             -0.04609             -0.11979         *
 * Ni            162     -0.26107             -0.01131             -0.02351         *
 * Ni            163      0.04067              0.16871             -0.01036         *
 * Ni            164     -0.12050              0.16699              0.16708         *
 * Ni            165     -0.05389              0.22662              0.16998         *
 * Ni            166     -0.12038             -0.07596             -0.12767         *
 * Ni            167     -0.04107             -0.04362             -0.04842         *
 * Ni            168     -0.05443              0.02840             -0.07499         *
 * Ni            169     -0.09897             -0.01760              0.00351         *
 * Ni            170     -0.29436             -0.25428              0.15419         *
 * Ni            171     -0.42931             -0.43707              0.04915         *
 * Ni            172     -0.29062              0.09090              0.13750         *
 * Ni            173     -0.05397             -0.24353             -0.08034         *
 * Ni            174     -0.42376              0.43766             -0.24328         *
 * Ni            175     -0.04029              0.08765             -0.10837         *
 * Ni            176     -0.16066              0.13365              0.20085         *
 * Ni            177     -0.19591             -0.06160              0.12658         *
 * Ni            178     -0.15631              0.37140              0.05458         *
 * Ni            179     -0.21145             -0.07814             -0.17245         *
 * Ni            180     -0.28610              0.06216              0.19482         *
 * Ni            181     -0.15978              0.17697              0.01721         *
 * Ni            182     -0.30084             -0.04120              0.00964         *
 * Ni            183     -0.18071             -0.06803              0.07875         *
 * Ni            184     -0.21101              0.27010             -0.03958         *
 * Ni            185     -0.15672             -0.06922              0.04007         *
 * Ni            186     -0.45299             -0.03819             -0.00407         *
 * Ni            187     -0.10697             -0.02247             -0.13464         *
 * Ni            188     -0.15312              0.03025              0.05927         *
 * Ni            189     -0.19943             -0.20091             -0.07144         *
 * Ni            190     -0.01190             -0.06468             -0.09684         *
 * Ni            191     -0.10269             -0.04622             -0.20477         *
 * Ni            192     -0.25093              0.16634             -0.05354         *
 * Ni            193     -0.20206              0.02279             -0.14922         *
 * Ni            194     -0.03845              0.04604             -0.08313         *
 * Ni            195     -0.05412              0.01081             -0.17354         *
 *                                                                                  *
 ************************************************************************************
 LBFGS: finished iteration     0 with enthalpy= -2.75182050E+005 eV
  
 +-----------+-----------------+-----------------+------------+-----+ <-- LBFGS
 | Parameter |      value      |    tolerance    |    units   | OK? | <-- LBFGS
 +-----------+-----------------+-----------------+------------+-----+ <-- LBFGS
 |  dE/ion   |   0.000000E+000 |   2.000000E-005 |         eV | No  | <-- LBFGS
 |  |F|max   |   9.762948E-001 |   5.000000E-002 |       eV/A | No  | <-- LBFGS
 |  |dR|max  |   0.000000E+000 |   1.000000E-003 |          A | No  | <-- LBFGS
 +-----------+-----------------+-----------------+------------+-----+ <-- LBFGS
  

================================================================================
 Starting LBFGS iteration          1 ...
================================================================================
  
 +------------+-------------+-------------+-----------------+ <-- min LBFGS
 |    Step    |   lambda    |   F.delta'  |    enthalpy     | <-- min LBFGS
 +------------+-------------+-------------+-----------------+ <-- min LBFGS
 |  previous  |    0.000000 |    2.151192 |  -275182.049513 | <-- min LBFGS
 +------------+-------------+-------------+-----------------+ <-- min LBFGS
  

--------------------------------------------------------------------------------
 LBFGS: starting iteration         1 with trial guess (lambda=  1.000000)
--------------------------------------------------------------------------------
 
                           -------------------------------
                                     Cell Contents
                           -------------------------------
 
            xxxxxxxxxxxxxxxxxxxxxxxxxxxxxxxxxxxxxxxxxxxxxxxxxxxxxxxxxxxxxxxxx
            x  Element         Atom        Fractional coordinates of atoms  x
            x                 Number           u          v          w      x
            x---------------------------------------------------------------x
            x  Al                1         0.318090   0.309397   0.062330   x
            x  Al                2         0.565656   0.311193   0.061080   x
            x  Al                3         0.814002   0.311599   0.061085   x
            x  Al                4         0.317283   0.561247   0.063707   x
            x  Al                5         0.565006   0.560221   0.061520   x
            x  Al                6         0.814347   0.560619   0.061101   x
            x  Al                7         0.322713   0.811620   0.058192   x
            x  Al                8         0.566508   0.809785   0.060648   x
            x  Al                9         0.814504   0.809683   0.060756   x
            x  Al               10         0.319636   0.060434   0.061328   x
            x  Al               11         0.567376   0.061133   0.060299   x
            x  Al               12         0.814127   0.060727   0.060782   x
            x  Al               13         0.317002   0.307949   0.310550   x
            x  Al               14         0.565223   0.310642   0.311799   x
            x  Al               15         0.813750   0.311462   0.311385   x
            x  Al               16         0.320753   0.556839   0.309755   x
            x  Al               17         0.564104   0.560080   0.311838   x
            x  Al               18         0.813967   0.560620   0.311431   x
            x  Al               19         0.324795   0.816378   0.311005   x
            x  Al               20         0.566597   0.810309   0.311415   x
            x  Al               21         0.814034   0.809804   0.311261   x
            x  Al               22         0.321767   0.059106   0.307217   x
            x  Al               23         0.567377   0.060959   0.311224   x
            x  Al               24         0.813816   0.060729   0.311145   x
            x  Al               25         0.317664   0.308325   0.559999   x
            x  Al               26         0.564490   0.311526   0.561218   x
            x  Al               27         0.814317   0.311680   0.561397   x
            x  Al               28         0.314734   0.561691   0.559369   x
            x  Al               29         0.563504   0.560281   0.560957   x
            x  Al               30         0.814657   0.560830   0.561533   x
            x  Al               31         0.322059   0.811394   0.564120   x
            x  Al               32         0.565987   0.809334   0.561889   x
            x  Al               33         0.814697   0.809665   0.561715   x
            x  Al               34         0.324545   0.059415   0.567162   x
            x  Al               35         0.567035   0.060846   0.562039   x
            x  Al               36         0.814434   0.060659   0.561613   x
            x  Al               37         0.319024   0.310610   0.811852   x
            x  Al               38         0.564529   0.312201   0.811080   x
            x  Al               39         0.814794   0.311909   0.811005   x
            x  Al               40         0.316331   0.560932   0.812736   x
            x  Al               41         0.563973   0.559880   0.810911   x
            x  Al               42         0.814831   0.560696   0.811062   x
            x  Al               43         0.318097   0.810494   0.812343   x
            x  Al               44         0.566637   0.809151   0.811403   x
            x  Al               45         0.814841   0.809557   0.811218   x
            x  Al               46         0.319940   0.059934   0.810972   x
            x  Al               47         0.567445   0.061075   0.811841   x
            x  Al               48         0.814796   0.060682   0.811147   x
            x  Al               49         0.075958   0.184478   0.932291   x
            x  Al               50         0.068832   0.937443   0.937507   x
            x  Al               51         0.065992   0.691962   0.942156   x
            x  Al               52         0.073426   0.686998   0.686752   x
            x  Al               53         0.084549   0.430708   0.678614   x
            x  Al               54         0.075852   0.556946   0.817863   x
            x  Al               55         0.064829   0.062345   0.310129   x
            x  Al               56         0.187814   0.059059   0.442944   x
            x  Al               57         0.180854   0.816664   0.437682   x
            x  Al               58         0.179524   0.679747   0.308182   x
            x  Al               59         0.081836   0.432827   0.437164   x
            x  Al               60         0.181744   0.818932   0.183348   x
            x  Ni                1         0.315497   0.433572   0.185736   x
            x  Ni                2         0.441593   0.309817   0.186484   x
            x  Ni                3         0.441059   0.435443   0.062007   x
            x  Ni                4         0.564847   0.435606   0.186954   x
            x  Ni                5         0.689696   0.311336   0.186360   x
            x  Ni                6         0.689434   0.436066   0.061168   x
            x  Ni                7         0.813717   0.436189   0.186358   x
            x  Ni                8         0.937707   0.311220   0.186279   x
            x  Ni                9         0.938359   0.436099   0.061419   x
            x  Ni               10         0.311963   0.689890   0.189461   x
            x  Ni               11         0.440442   0.560914   0.186450   x
            x  Ni               12         0.440952   0.685070   0.062296   x
            x  Ni               13         0.565974   0.685014   0.186446   x
            x  Ni               14         0.689349   0.560328   0.186555   x
            x  Ni               15         0.689928   0.684744   0.061051   x
            x  Ni               16         0.814074   0.684999   0.186041   x
            x  Ni               17         0.938544   0.560588   0.186232   x
            x  Ni               18         0.939337   0.685280   0.060911   x
            x  Ni               19         0.316694   0.934580   0.183930   x
            x  Ni               20         0.443281   0.810918   0.185327   x
            x  Ni               21         0.443869   0.936193   0.060044   x
            x  Ni               22         0.567591   0.935566   0.185458   x
            x  Ni               23         0.690141   0.809871   0.186008   x
            x  Ni               24         0.690706   0.935116   0.060607   x
            x  Ni               25         0.813859   0.935051   0.185754   x
            x  Ni               26         0.938178   0.810036   0.185758   x
            x  Ni               27         0.938232   0.935250   0.060959   x
            x  Ni               28         0.316427   0.184474   0.185616   x
            x  Ni               29         0.443705   0.060319   0.184790   x
            x  Ni               30         0.442250   0.185619   0.060794   x
            x  Ni               31         0.566615   0.185978   0.185928   x
            x  Ni               32         0.690613   0.060850   0.185845   x
            x  Ni               33         0.690448   0.186537   0.060833   x
            x  Ni               34         0.813715   0.186328   0.186077   x
            x  Ni               35         0.937209   0.060811   0.185650   x
            x  Ni               36         0.937757   0.186119   0.061177   x
            x  Ni               37         0.309450   0.434028   0.439111   x
            x  Ni               38         0.439195   0.309440   0.435895   x
            x  Ni               39         0.439429   0.433810   0.312445   x
            x  Ni               40         0.564133   0.435633   0.436585   x
            x  Ni               41         0.689624   0.311339   0.436693   x
            x  Ni               42         0.689169   0.435950   0.311690   x
            x  Ni               43         0.813867   0.436311   0.436479   x
            x  Ni               44         0.938005   0.311464   0.435917   x
            x  Ni               45         0.938151   0.436187   0.311299   x
            x  Ni               46         0.311249   0.690632   0.431380   x
            x  Ni               47         0.438095   0.560860   0.436000   x
            x  Ni               48         0.441089   0.685927   0.311136   x
            x  Ni               49         0.565056   0.684935   0.436499   x
            x  Ni               50         0.689211   0.560422   0.436565   x
            x  Ni               51         0.689646   0.684937   0.311561   x
            x  Ni               52         0.814220   0.685049   0.436708   x
            x  Ni               53         0.938772   0.560771   0.436303   x
            x  Ni               54         0.938231   0.685102   0.311172   x
            x  Ni               55         0.315592   0.936964   0.438256   x
            x  Ni               56         0.442291   0.811421   0.436975   x
            x  Ni               57         0.444848   0.936889   0.311011   x
            x  Ni               58         0.567468   0.935461   0.436925   x
            x  Ni               59         0.690054   0.809793   0.436734   x
            x  Ni               60         0.690403   0.935250   0.311303   x
            x  Ni               61         0.814077   0.934992   0.436555   x
            x  Ni               62         0.938435   0.809852   0.436292   x
            x  Ni               63         0.937074   0.935208   0.310624   x
            x  Ni               64         0.316383   0.179764   0.436141   x
            x  Ni               65         0.442848   0.059642   0.436820   x
            x  Ni               66         0.442366   0.184735   0.311032   x
            x  Ni               67         0.566129   0.185892   0.436521   x
            x  Ni               68         0.690659   0.060801   0.436793   x
            x  Ni               69         0.690159   0.186209   0.311412   x
            x  Ni               70         0.813759   0.186375   0.436472   x
            x  Ni               71         0.937316   0.060990   0.435808   x
            x  Ni               72         0.937450   0.186290   0.311014   x
            x  Ni               73         0.311056   0.435770   0.681164   x
            x  Ni               74         0.440015   0.311576   0.686057   x
            x  Ni               75         0.438337   0.435672   0.560201   x
            x  Ni               76         0.563975   0.436341   0.685795   x
            x  Ni               77         0.689770   0.311907   0.686220   x
            x  Ni               78         0.689336   0.436221   0.561369   x
            x  Ni               79         0.814659   0.436619   0.686223   x
            x  Ni               80         0.938688   0.311561   0.686016   x
            x  Ni               81         0.938903   0.436671   0.561016   x
            x  Ni               82         0.314852   0.686519   0.687431   x
            x  Ni               83         0.437928   0.560315   0.685676   x
            x  Ni               84         0.439189   0.684948   0.560359   x
            x  Ni               85         0.564768   0.684038   0.686063   x
            x  Ni               86         0.689444   0.560347   0.686055   x
            x  Ni               87         0.689660   0.684696   0.561499   x
            x  Ni               88         0.814802   0.684933   0.686410   x
            x  Ni               89         0.940391   0.561262   0.686509   x
            x  Ni               90         0.939912   0.685353   0.561727   x
            x  Ni               91         0.317927   0.934726   0.688559   x
            x  Ni               92         0.442660   0.809618   0.687811   x
            x  Ni               93         0.444375   0.935139   0.562695   x
            x  Ni               94         0.567493   0.934766   0.687245   x
            x  Ni               95         0.690258   0.809323   0.686453   x
            x  Ni               96         0.690525   0.935023   0.561907   x
            x  Ni               97         0.814772   0.934805   0.686574   x
            x  Ni               98         0.939850   0.809746   0.686718   x
            x  Ni               99         0.938400   0.934924   0.561251   x
            x  Ni              100         0.318723   0.184256   0.687493   x
            x  Ni              101         0.444965   0.060288   0.688422   x
[...]
            Ni 15  -- Ni 124                 0.04        2.57168
            Ni 43  -- Ni 78                  0.03        2.57180
             Al 45 -- Ni 133                 0.20        2.57180
            Ni 35  -- Ni 157                 0.06        2.57181
            Ni 49  -- Ni 87                  0.04        2.57182
             Al 12 -- Ni 34                  0.20        2.57182
             Al 55 -- Ni 166                 0.18        2.57190
             Al 52 -- Ni 188                 0.20        2.57192
            Ni 124 -- Ni 131                 0.04        2.57192
            Ni 120 -- Ni 121                 0.04        2.57196
            Ni 85  -- Ni 87                  0.04        2.57200
             Al 34 -- Ni 64                  0.21        2.57203
            Ni 21  -- Ni 128                 0.03        2.57206
            Ni 143 -- Ni 144                 0.02        2.57209
            Ni 91  -- Ni 180                 0.04        2.57210
            Ni 111 -- Ni 112                 0.04        2.57216
            Ni 4   -- Ni 11                  0.04        2.57216
            Ni 77  -- Ni 79                  0.03        2.57220
            Ni 93  -- Ni 101                 0.03        2.57222
             Al 41 -- Ni 123                 0.21        2.57226
            Ni 28  -- Ni 30                  0.04        2.57232
             Al 45 -- Ni 135                 0.18        2.57243
            Ni 3   -- Ni 112                 0.04        2.57245
            Ni 162 -- Ni 169                 0.12        2.57249
             Al 40 -- Ni 73                  0.20        2.57259
             Al 14 -- Ni 2                   0.20        2.57262
             Al 40 -- Ni 189                 0.19        2.57265
             Al 29 -- Ni 83                  0.21        2.57268
             Al 33 -- Ni 88                  0.20        2.57270
             Al 30 -- Ni 81                  0.19        2.57283
            Ni 79  -- Ni 86                  0.03        2.57283
            Ni 140 -- Ni 142                 0.03        2.57284
             Al 59 -- Ni 44                  0.17        2.57291
            Ni 82  -- Ni 120                 0.03        2.57291
             Al 22 -- Ni 64                  0.20        2.57296
             Al 8  -- Ni 21                  0.20        2.57301
             Al 23 -- Ni 22                  0.21        2.57335
             Al 37 -- Ni 73                  0.19        2.57346
            Ni 159 -- Ni 184                 0.03        2.57356
            Ni 153 -- Ni 154                 0.06        2.57360
             Al 44 -- Ni 129                 0.20        2.57363
             Al 41 -- Ni 122                 0.21        2.57371
             Al 5  -- Ni 122                 0.20        2.57377
            Ni 40  -- Ni 78                  0.04        2.57382
            Ni 76  -- Ni 83                  0.04        2.57384
             Al 56 -- Ni 167                 0.19        2.57385
            Ni 46  -- Ni 164                 0.05        2.57400
             Al 20 -- Ni 22                  0.21        2.57401
            Ni 21  -- Ni 127                 0.03        2.57408
            Ni 91  -- Ni 93                  0.03        2.57412
             Al 15 -- Ni 8                   0.18        2.57419
             Al 9  -- Ni 16                  0.20        2.57464
            Ni 112 -- Ni 114                 0.04        2.57464
            Ni 130 -- Ni 137                 0.04        2.57468
            Ni 184 -- Ni 195                 0.02        2.57479
             Al 49 -- Ni 156                 0.19        2.57482
            Ni 121 -- Ni 123                 0.04        2.57491
             Al 28 -- Ni 83                  0.19        2.57492
             Al 41 -- Ni 86                  0.20        2.57498
            Ni 87  -- Ni 88                  0.04        2.57512
             Al 38 -- Ni 74                  0.20        2.57512
            Ni 170 -- Ni 185                 0.03        2.57513
             Al 9  -- Ni 133                 0.20        2.57516
             Al 22 -- Ni 167                 0.18        2.57519
             Al 34 -- Ni 65                  0.21        2.57528
            Ni 118 -- Ni 120                 0.03        2.57532
             Al 57 -- Ni 173                 0.17        2.57532
             Al 47 -- Ni 129                 0.20        2.57539
             Al 10 -- Ni 194                 0.19        2.57543
            Ni 76  -- Ni 114                 0.04        2.57545
             Al 32 -- Ni 58                  0.21        2.57545
             Al 30 -- Ni 52                  0.20        2.57548
             Al 4  -- Ni 3                   0.21        2.57548
            Ni 48  -- Ni 56                  0.03        2.57548
             Al 16 -- Ni 161                 0.18        2.57552
             Al 53 -- Ni 80                  0.16        2.57556
            Ni 89  -- Ni 126                -0.02        2.57566
            Ni 136 -- Ni 159                 0.05        2.57569
            Ni 38  -- Ni 40                  0.04        2.57575
             Al 51 -- Ni 147                 0.19        2.57580
            Ni 47  -- Ni 49                  0.05        2.57582
            Ni 46  -- Ni 56                  0.04        2.57600
             Al 25 -- Ni 100                 0.19        2.57616
             Al 20 -- Ni 49                  0.21        2.57624
            Ni 82  -- Ni 84                  0.05        2.57628
             Al 13 -- Ni 39                  0.21        2.57629
             Al 4  -- Ni 109                 0.20        2.57633
            Ni 121 -- Ni 131                 0.04        2.57633
            Ni 79  -- Ni 114                 0.03        2.57635
             Al 28 -- Ni 172                 0.26        2.57654
             Al 42 -- Ni 123                 0.21        2.57659
            Ni 166 -- Ni 178                 0.10        2.57664
             Al 47 -- Ni 138                 0.20        2.57665
             Al 42 -- Ni 114                 0.21        2.57667
            Ni 79  -- Ni 81                  0.08        2.57678
             Al 17 -- Ni 50                  0.20        2.57685
            Ni 1   -- Ni 39                  0.03        2.57685
            Ni 37  -- Ni 38                  0.03        2.57701
             Al 4  -- Ni 119                 0.20        2.57702
            Ni 100 -- Ni 101                 0.03        2.57713
            Ni 91  -- Ni 101                 0.03        2.57724
             Al 10 -- Ni 19                  0.21        2.57727
            Ni 64  -- Ni 169                 0.03        2.57736
             Al 29 -- Ni 50                  0.20        2.57738
             Al 23 -- Ni 29                  0.20        2.57747
            Ni 156 -- Ni 194                 0.06        2.57757
             Al 41 -- Ni 119                 0.20        2.57763
            Ni 116 -- Ni 144                 0.02        2.57780
             Al 14 -- Ni 38                  0.20        2.57782
            Ni 12  -- Ni 128                 0.03        2.57789
            Ni 74  -- Ni 103                 0.04        2.57790
            Ni 118 -- Ni 188                 0.08        2.57813
             Al 42 -- Ni 86                  0.21        2.57821
             Al 22 -- Ni 169                 0.19        2.57829
             Al 29 -- Ni 47                  0.20        2.57840
            Ni 149 -- Ni 150                 0.05        2.57843
             Al 23 -- Ni 58                  0.20        2.57855
             Al 40 -- Ni 119                 0.21        2.57860
            Ni 20  -- Ni 48                  0.04        2.57864
            Ni 88  -- Ni 95                  0.03        2.57879
             Al 29 -- Ni 87                  0.20        2.57880
            Ni 83  -- Ni 85                  0.04        2.57892
             Al 55 -- Ni 168                 0.17        2.57898
            Ni 12  -- Ni 118                 0.03        2.57909
             Al 39 -- Ni 80                  0.19        2.57914
            Ni 73  -- Ni 83                  0.03        2.57917
             Al 34 -- Ni 180                 0.19        2.57928
            Ni 190 -- Ni 191                 0.00        2.57942
             Al 15 -- Ni 44                  0.18        2.57955
             Al 28 -- Ni 82                  0.20        2.57962
            Ni 78  -- Ni 79                  0.03        2.57969
            Ni 109 -- Ni 185                 0.07        2.57979
             Al 8  -- Ni 12                  0.20        2.57991
            Ni 85  -- Ni 95                  0.04        2.58002
             Al 52 -- Ni 192                 0.19        2.58014
            Ni 39  -- Ni 47                  0.04        2.58035
            Ni 125 -- Ni 126                -0.00        2.58047
             Al 49 -- Ni 193                 0.19        2.58072
            Ni 73  -- Ni 172                 0.17        2.58110
            Ni 89  -- Ni 90                  0.02        2.58121
             Al 43 -- Ni 129                 0.20        2.58146
             Al 29 -- Ni 86                  0.20        2.58164
            Ni 11  -- Ni 39                  0.03        2.58176
            Ni 18  -- Ni 147                 0.08        2.58180
            Ni 40  -- Ni 47                  0.04        2.58184
             Al 25 -- Ni 74                  0.19        2.58189
             Al 9  -- Ni 124                 0.20        2.58207
             Al 60 -- Ni 19                  0.19        2.58208
             Al 17 -- Ni 47                  0.20        2.58213
             Al 4  -- Ni 187                 0.19        2.58244
            Ni 176 -- Ni 178                 0.09        2.58263
            Ni 28  -- Ni 29                  0.03        2.58266
            Ni 73  -- Ni 74                  0.03        2.58276
            Ni 12  -- Ni 121                 0.04        2.58281
             Al 22 -- Ni 158                 0.19        2.58287
            Ni 1   -- Ni 11                  0.03        2.58330
            Ni 84  -- Ni 92                  0.03        2.58330
             Al 52 -- Ni 174                 0.17        2.58343
             Al 40 -- Ni 172                 0.17        2.58358
             Al 16 -- Ni 48                  0.20        2.58377
             Al 42 -- Ni 126                 0.18        2.58377
            Ni 101 -- Ni 102                 0.03        2.58378
            Ni 188 -- Ni 189                -0.01        2.58412
            Ni 154 -- Ni 167                 0.06        2.58418
            Ni 168 -- Ni 181                 0.05        2.58434
            Ni 98  -- Ni 126                 0.02        2.58446
            Ni 151 -- Ni 190                 0.03        2.58448
             Al 12 -- Ni 25                  0.20        2.58457
             Al 59 -- Ni 165                 0.18        2.58464
             Al 58 -- Ni 46                  0.20        2.58488
            Ni 19  -- Ni 158                 0.05        2.58490
             Al 34 -- Ni 55                  0.20        2.58528
            Ni 117 -- Ni 125                 0.02        2.58531
             Al 41 -- Ni 83                  0.20        2.58553
            Ni 45  -- Ni 53                  0.04        2.58613
            Ni 27  -- Ni 134                 0.01        2.58615
            Ni 166 -- Ni 167                 0.01        2.58631
            Ni 71  -- Ni 72                  0.03        2.58672
            Ni 55  -- Ni 56                  0.07        2.58680
            Ni 40  -- Ni 75                  0.04        2.58724
            Ni 84  -- Ni 85                  0.04        2.58750
            Ni 55  -- Ni 177                -0.02        2.58753
            Ni 152 -- Ni 155                 0.05        2.58821
             Al 7  -- Ni 151                 0.17        2.58826
            Ni 149 -- Ni 154                 0.00        2.58828
            Ni 19  -- Ni 167                -0.00        2.58840
            Ni 163 -- Ni 178                 0.05        2.58882
             Al 29 -- Ni 75                  0.20        2.58908
             Al 26 -- Ni 75                  0.20        2.58953
            Ni 172 -- Ni 185                -0.00        2.58972
            Ni 55  -- Ni 167                -0.01        2.58979
            Ni 115 -- Ni 117                 0.06        2.58990
            Ni 176 -- Ni 188                 0.01        2.59010
             Al 53 -- Ni 185                 0.22        2.59013
            Ni 35  -- Ni 72                  0.02        2.59017
             Al 44 -- Ni 120                 0.20        2.59023
            Ni 172 -- Ni 173                 0.06        2.59112
             Al 28 -- Ni 84                  0.20        2.59122
            Ni 153 -- Ni 155                 0.06        2.59138
            Ni 37  -- Ni 47                  0.03        2.59143
             Al 42 -- Ni 122                 0.20        2.59209
             Al 32 -- Ni 84                  0.19        2.59234
            Ni 81  -- Ni 171                 0.06        2.59287
            Ni 88  -- Ni 126                 0.09        2.59291
             Al 16 -- Ni 150                 0.17        2.59300
            Ni 152 -- Ni 190                 0.05        2.59354
             Al 31 -- Ni 55                  0.20        2.59364
            Ni 154 -- Ni 166                 0.05        2.59375
            Ni 79  -- Ni 89                  0.08        2.59380
            Ni 20  -- Ni 57                  0.03        2.59380
            Ni 127 -- Ni 128                 0.03        2.59407
             Al 59 -- Ni 162                 0.17        2.59410
             Al 31 -- Ni 173                 0.18        2.59412
             Al 22 -- Ni 65                  0.20        2.59412
            Ni 82  -- Ni 92                  0.03        2.59421
             Al 55 -- Ni 158                 0.19        2.59453
             Al 40 -- Ni 188                 0.18        2.59462
             Al 13 -- Ni 64                  0.20        2.59470
            Ni 164 -- Ni 165                 0.05        2.59493
            Ni 124 -- Ni 126                 0.08        2.59510
            Ni 63  -- Ni 71                  0.03        2.59513
             Al 43 -- Ni 188                 0.19        2.59521
            Ni 147 -- Ni 151                 0.08        2.59527
             Al 13 -- Ni 169                 0.19        2.59615
             Al 56 -- Ni 55                  0.18        2.59635
             Al 22 -- Ni 55                  0.19        2.59643
            Ni 185 -- Ni 189                 0.02        2.59645
            Ni 118 -- Ni 128                 0.03        2.59679
             Al 16 -- Ni 10                  0.19        2.59762
             Al 16 -- Ni 164                 0.16        2.59776
            Ni 90  -- Ni 98                  0.02        2.59791
            Ni 75  -- Ni 76                  0.04        2.59834
            Ni 37  -- Ni 39                  0.00        2.59874
            Ni 173 -- Ni 176                 0.03        2.59877
            Ni 73  -- Ni 111                 0.01        2.59917
            Ni 153 -- Ni 167                 0.03        2.59923
            Ni 56  -- Ni 57                  0.03        2.59969
            Ni 38  -- Ni 64                  0.07        2.59979
            Ni 160 -- Ni 161                 0.03        2.60004
            Ni 18  -- Ni 134                 0.01        2.60009
            Ni 151 -- Ni 189                 0.06        2.60077
             Al 25 -- Ni 102                 0.18        2.60099
             Al 51 -- Ni 189                 0.17        2.60116
            Ni 82  -- Ni 188                 0.07        2.60201
            Ni 146 -- Ni 169                 0.08        2.60208
             Al 51 -- Ni 125                 0.17        2.60345
             Al 42 -- Ni 89                  0.17        2.60636
            Ni 19  -- Ni 29                  0.06        2.60699
             Al 30 -- Ni 89                  0.19        2.60756
             Al 53 -- Ni 89                  0.17        2.60843
            Ni 35  -- Ni 63                  0.02        2.60881
            Ni 88  -- Ni 89                  0.08        2.60941
            Ni 149 -- Ni 165                 0.07        2.60966
             Al 25 -- Ni 64                  0.17        2.60997
            Ni 55  -- Ni 57                  0.01        2.61206
            Ni 19  -- Ni 57                  0.02        2.61234
             Al 59 -- Ni 53                  0.15        2.61239
             Al 57 -- Ni 55                  0.17        2.61681
             Al 55 -- Ni 167                 0.18        2.61699
            Ni 10  -- Ni 150                 0.02        2.61706
             Al 31 -- Ni 177                 0.16        2.61754
             Al 45 -- Ni 126                 0.18        2.61879
             Al 34 -- Ni 181                 0.16        2.61905
            Ni 163 -- Ni 165                 0.05        2.62259
             Al 34 -- Ni 177                 0.15        2.62265
             Al 7  -- Ni 155                 0.16        2.62806
             Al 59 -- Ni 45                  0.15        2.62811
             Al 16 -- Ni 46                  0.18        2.62814
             Al 51 -- Ni 192                 0.16        2.62958
             Al 31 -- Ni 46                  0.19        2.62965
            Ni 151 -- Ni 152                 0.02        2.63011
            Ni 166 -- Ni 177                 0.02        2.63065
            Ni 173 -- Ni 178                 0.03        2.63134
             Al 53 -- Ni 186                 0.16        2.63172
             Al 7  -- Ni 10                  0.18        2.63240
             Al 60 -- Ni 10                  0.16        2.63755
             Al 19 -- Ni 167                 0.17        2.64022
             Al 57 -- Ni 46                  0.17        2.64130
            Ni 46  -- Ni 47                  0.06        2.64339
            Ni 46  -- Ni 84                  0.07        2.65132
            Ni 10  -- Ni 11                  0.05        2.65583
             Al 4  -- Ni 10                  0.17        2.66308
            Ni 10  -- Ni 12                  0.06        2.66356
             Al 55 -- Al 56                  0.22        2.70056
             Al 34 -- Al 56                  0.23        2.70154
             Al 28 -- Ni 46                  0.13        2.70633
             Al 51 -- Al 54                  0.22        2.70797
             Al 16 -- Al 58                  0.20        2.71823
             Al 58 -- Al 60                  0.21        2.71927
             Al 7  -- Al 60                  0.20        2.73229
             Al 53 -- Ni 117                 0.11        2.73579
             Al 31 -- Al 57                  0.20        2.73608
             Al 53 -- Al 54                  0.19        2.74323
             Al 57 -- Al 58                  0.19        2.75478
             Al 22 -- Al 56                  0.20        2.76518
             Al 52 -- Al 54                  0.18        2.78623
             Al 19 -- Al 57                  0.18        2.81750
             Al 19 -- Al 60                  0.16        2.83656
             Al 19 -- Al 58                  0.08        2.94962
======================================================================
 

Writing analysis data to castep.castep_bin

Writing model to castep.check
 
 A BibTeX formatted list of references used in this run has been written to 
 castep.bib
 
Initialisation time =     20.54 s
Calculation time    =   8560.90 s
Finalisation time   =      4.24 s
Total time          =   8585.68 s
Peak Memory Use     = 3945284 kB
 
Overall parallel efficiency rating: Satisfactory (68%)
 
Data was distributed by:-
G-vector (128-way); efficiency rating: Good (70%)
