 +-------------------------------------------------+
 |                                                 |
 |      CCC   AA    SSS  TTTTT  EEEEE  PPPP        |
 |     C     A  A  S       T    E      P   P       |
 |     C     AAAA   SS     T    EEE    PPPP        |
 |     C     A  A     S    T    E      P           |
 |      CCC  A  A  SSS     T    EEEEE  P           |
 |                                                 |
 +-------------------------------------------------+
 |                                                 |
 | Welcome to Academic Release CASTEP version 20.11|          
 | Ab Initio Total Energy Program                  |
 |                                                 |
 | Authors:                                        |
 | M. Segall, M. Probert, C. Pickard, P. Hasnip,   |
 | S. Clark, K. Refson, J. R. Yates, M. Payne      |
 |                                                 |
 | Contributors:                                   |
 | P. Lindan, P. Haynes, J. White, V. Milman,      |
 | N. Govind, M. Gibson, P. Tulip, V. Cocula,      |
 | B. Montanari, D. Quigley, M. Glover,            |
 | L. Bernasconi, A. Perlov, M. Plummer,           |
 | E. McNellis, J. Meyer, J. Gale, D. Jochym       |
 | J. Aarons, B. Walker, R. Gillen, D. Jones       |
 | T. Green, I. J. Bush, C. J. Armstrong,          |
 | E. J. Higgins, E. L. Brown, M. S. McFly,        |
 | J. Wilkins, B-C. Shih, P. J. P. Byrne,          |
 | R. J. Maurer, J. C. Womack, J. Dziedzic,        |
 | J. R. Kermode, A. Bartok-Partay                 |
 |                                                 |
 | Copyright (c) 2000 - 2020                       |
 |                                                 |
 |     Distributed under license from Cambridge    |
 |     Enterprise for academic use only.           |
 |                                                 |
 | Please cite                                     |
 |                                                 |
 |     "First principles methods using CASTEP"     |
 |                                                 |
 |         Zeitschrift fuer Kristallographie       |
 |           220(5-6) pp. 567-570 (2005)           |
 |                                                 |
 | S. J. Clark, M. D. Segall, C. J. Pickard,       |
 | P. J. Hasnip, M. J. Probert, K. Refson,         |
 | M. C. Payne                                     |
 |                                                 |
 |       in all publications arising from          |
 |              your use of CASTEP                 |
 |                                                 |
 +-------------------------------------------------+
 |                                                 |
 |              http://www.castep.org              |
 |                                                 |
 +-------------------------------------------------+
 
 
 
 Compiled for linux_x86_64_ifort on Wed, 25 Aug 2021 18:50:38 +0100
 from code version e772bf432+  HEAD  Sat Apr 3 17:41:32 2021 +0100
 Compiler: Intel Fortran 19.0.5.281; Optimisation: fast
 MATHLIBS: Intel MKL(2019.0.5) (LAPACK version 3.7.0)
 FFT Lib : mkl
 Fundamental constants values: CODATA 2014
 
 Run started: Thu, 09 Mar 2023 15:02:40 +0000
 
 Atomic calculation performed for Al: 1s2 2s2 2p6 3s2 3p1
 
 Converged in 52 iterations to an ae energy of -6606.982 eV
 
   ============================================================                
   | Pseudopotential Report - Date of generation  9-03-2023   |                
   ------------------------------------------------------------                
   | Element: Al Ionic charge:  3.00 Level of theory: RPBE    |                
   | Atomic Solver: Koelling-Harmon                           |                
   |                                                          |                
   |               Reference Electronic Structure             |                
   |         Orbital         Occupation         Energy        |                
   |            3s              2.000           -0.284        |                
   |            3p              1.000           -0.100        |                
   |                                                          |                
   |                 Pseudopotential Definition               |                
   |        Beta     l      e      Rc     scheme   norm       |                
   |          1      0   -0.284   2.192     qc      0         |                
   |          2      0    0.250   2.192     qc      0         |                
   |          3      1   -0.100   2.192     qc      0         |                
   |          4      1    0.250   2.192     qc      0         |                
   |          5      2    0.000   2.000     qc      0         |                
   |          6      2    0.250   2.000     qc      0         |                
   |         loc     3    0.000   2.192     pn      0         |                
   |                                                          |                
   | Augmentation charge Rinner = 1.398                       |                
   | Partial core correction Rc = 1.398                       |                
   ------------------------------------------------------------                
   | "3|2.2|2.2|1.4|4|5|5|30:31:32U2U2"                       |                
   ------------------------------------------------------------                
   |      Author: Chris J. Pickard, Cambridge University      |                
   ============================================================                
 
 Atomic calculation performed for Ni: 1s2 2s2 2p6 3s2 3p6 3d8 4s2
 
 Converged in 109 iterations to an ae energy of -41381.414 eV
 
   ============================================================                
   | Pseudopotential Report - Date of generation  9-03-2023   |                
   ------------------------------------------------------------                
   | Element: Ni Ionic charge: 10.00 Level of theory: RPBE    |                
   | Atomic Solver: Koelling-Harmon                           |                
   |                                                          |                
   |               Reference Electronic Structure             |                
   |         Orbital         Occupation         Energy        |                
   |            3d              8.000           -0.324        |                
   |            4s              2.000           -0.204        |                
   |                                                          |                
   |                 Pseudopotential Definition               |                
   |        Beta     l      e      Rc     scheme   norm       |                
   |          1      0   -0.204   2.401     qc      0         |                
   |          2      0    0.250   2.401     qc      0         |                
   |          3      1    0.000   2.401     qc      0         |                
   |          4      1    0.250   2.401     qc      0         |                
   |          5      2   -0.324   1.999     qc      0         |                
   |          6      2    0.250   1.999     qc      0         |                
   |         loc     3    0.000   2.401     pn      0         |                
   |                                                          |                
   | Augmentation charge Rinner = 1.001                       |                
   | Partial core correction Rc = 1.001                       |                
   ------------------------------------------------------------                
   | "3|2.4|2.4|1.0|8|9|10|40:41:32U2U2(qc=5.5)"              |                
   ------------------------------------------------------------                
   |      Author: Chris J. Pickard, Cambridge University      |                
   ============================================================                
 
 Pseudo atomic calculation performed for Al 3s2 3p1
 
 Converged in 13 iterations to a total energy of -107.6593 eV
 
 Pseudo atomic calculation performed for Ni 3d8 4s2
 
 Converged in 41 iterations to a total energy of -1369.7890 eV
 Calculation parallelised over 28 processes.
 Data is distributed by G-vector(28-way)

 ************************************ Title ************************************
 

 ***************************** General Parameters ******************************
  
 output verbosity                               : normal  (1)
 write checkpoint data to                       : castep.check
 type of calculation                            : geometry optimization
 stress calculation                             : off
 density difference calculation                 : off
 electron localisation func (ELF) calculation   : off
 Hirshfeld analysis                             : off
 molecular orbital projected DOS                : off
 deltaSCF calculation                           : off
 unlimited duration calculation
 timing information                             : on
 memory usage estimate                          : on
 write extra output files                       : on
 write final potential to formatted file        : off
 write final density to formatted file          : off
 write BibTeX reference list                    : on
 write OTFG pseudopotential files               : on
 write electrostatic potential file             : on
 write bands file                               : on
 checkpoint writing                             : both castep_bin and check files
  
 output         length unit                     : A
 output           mass unit                     : amu
 output           time unit                     : ps
 output         charge unit                     : e
 output           spin unit                     : hbar/2
 output         energy unit                     : eV
 output          force unit                     : eV/A
 output       velocity unit                     : A/ps
 output       pressure unit                     : GPa
 output     inv_length unit                     : 1/A
 output      frequency unit                     : cm-1
 output force constant unit                     : eV/A**2
 output         volume unit                     : A**3
 output   IR intensity unit                     : (D/A)**2/amu
 output         dipole unit                     : D
 output         efield unit                     : eV/A/e
 output        entropy unit                     : J/mol/K
 output    efield chi2 unit                     : pm/V
  
 wavefunctions paging                           : none
 random number generator seed                   : randomised (150241064)
 data distribution                              : optimal for this architecture
 optimization strategy                          : maximize speed(+++)

 *********************** Exchange-Correlation Parameters ***********************
  
 using functional                               : revised Perdew Burke Ernzerhof
 relativistic treatment                         : Koelling-Harmon
 DFT+D: Semi-empirical dispersion correction    : off

 ************************* Pseudopotential Parameters **************************
  
 pseudopotential representation                 : reciprocal space
 <beta|phi> representation                      : reciprocal space
 spin-orbit coupling                            : off

 **************************** Basis Set Parameters *****************************
  
 plane wave basis set cut-off                   :   900.0000   eV
 size of standard grid                          :     1.7500
 size of   fine   gmax                          :    26.8966   1/A
 finite basis set correction                    : none

 **************************** Electronic Parameters ****************************
  
 number of  electrons                           :  2130.    
 net charge of system                           :  0.000    
 treating system as non-spin-polarized
 number of bands                                :       1177

 ********************* Electronic Minimization Parameters **********************
  
 Method: Treating system as metallic with density mixing treatment of electrons,
         and number of  SD  steps               :          1
         and number of  CG  steps               :          4
  
 total energy / atom convergence tol.           : 0.1000E-05   eV
 eigen-energy convergence tolerance             : 0.2167E-06   eV
 max force / atom convergence tol.              : ignored
 convergence tolerance window                   :          3   cycles
 max. number of SCF cycles                      :        200
 number of fixed-spin iterations                :         10
 smearing scheme                                : Gaussian
 smearing width                                 : 0.2000       eV
 Fermi energy convergence tolerance             : 0.2721E-13   eV
 periodic dipole correction                     : NONE
 periodically dump wavefunctions to             : castep.wvfn
 dump wavefunctions every                       :          1   SCF cycles

 ************************** Density Mixing Parameters **************************
  
 density-mixing scheme                          : Pulay
 max. length of mixing history                  :         20
 charge density mixing amplitude                : 0.8000    
 cut-off energy for mixing                      :  900.0       eV

 *********************** Population Analysis Parameters ************************
  
 Population analysis with cutoff                :  3.000       A
 Population analysis output                     : summary and pdos components

 ********************** Geometry Optimization Parameters ***********************
  
 optimization method                            : LBFGS
 max. no. of LBFGS updates                      : unbounded
 variable cell method                           : fixed basis quality
 max. number of steps                           :         30
 estimated bulk modulus                         :  500.0       GPa
 estimated <frequency>                          :  1668.       cm-1
 geom line minimiser                            : on
 with line minimiser tolerance                  :     0.4000
 total energy convergence tolerance             : 0.2000E-04   eV/atom
        max ionic |force| tolerance             : 0.5000E-01   eV/A
 max ionic |displacement| tolerance             : 0.1000E-02   A
   max |stress component| tolerance             : 0.1000       GPa
 convergence tolerance window                   :          2   steps
 backup results every                           :          5   steps
 write geom trajectory file                     : on

 *******************************************************************************
  
 
                           -------------------------------
                                      Unit Cell
                           -------------------------------
        Real Lattice(A)                      Reciprocal Lattice(1/A)
    14.4648280     0.0000000     0.0000000        0.434376773   0.000000000   0.000000000
     0.0000000    14.4648280     0.0000000        0.000000000   0.434376773   0.000000000
     0.0000000     0.0000000    14.4648280        0.000000000   0.000000000   0.434376773
 
                       Lattice parameters(A)       Cell Angles
                    a =     14.464828          alpha =   90.000000
                    b =     14.464828          beta  =   90.000000
                    c =     14.464828          gamma =   90.000000
 
                       Current cell volume =          3026.494030       A**3
                                   density =             4.316581   AMU/A**3
                                           =             7.167851     g/cm^3
 
                           -------------------------------
                                     Cell Contents
                           -------------------------------
                         Total number of ions in cell =  255
                      Total number of species in cell =    2
                        Max number of any one species =  195
 
            xxxxxxxxxxxxxxxxxxxxxxxxxxxxxxxxxxxxxxxxxxxxxxxxxxxxxxxxxxxx
            x  Element    Atom        Fractional coordinates of atoms  x
            x            Number           u          v          w      x
            x----------------------------------------------------------x
            x  Al           1         0.946553   0.064641   0.935939   x 
            x  Al           2         0.672042   0.939754   0.810218   x 
            x  Al           3         0.809183   0.070201   0.809011   x 
            x  Al           4         0.419766   0.056376   0.181035   x 
            x  Al           5         0.439380   0.937299   0.809635   x 
            x  Al           6         0.422429   0.698402   0.810132   x 
            x  Al           7         0.559172   0.060391   0.056675   x 
            x  Al           8         0.299168   0.944559   0.933410   x 
            x  Al           9         0.940522   0.813961   0.939492   x 
            x  Al          10         0.809826   0.816868   0.810978   x 
            x  Al          11         0.556325   0.571609   0.066714   x 
            x  Al          12         0.423182   0.560926   0.934658   x 
            x  Al          13         0.182226   0.697835   0.808672   x 
            x  Al          14         0.944324   0.310666   0.935390   x 
            x  Al          15         0.689065   0.564675   0.929515   x 
            x  Al          16         0.556784   0.314056   0.822298   x 
            x  Al          17         0.181834   0.427065   0.811345   x 
            x  Al          18         0.184215   0.562138   0.944753   x 
            x  Al          19         0.815847   0.066689   0.569664   x 
            x  Al          20         0.306660   0.936960   0.678883   x 
            x  Al          21         0.177291   0.070628   0.684170   x 
            x  Al          22         0.805978   0.687590   0.680296   x 
            x  Al          23         0.563805   0.693831   0.678887   x 
            x  Al          24         0.176366   0.696365   0.553376   x 
            x  Al          25         0.944597   0.560407   0.687214   x 
            x  Al          26         0.799503   0.441708   0.684797   x 
            x  Al          27         0.563064   0.438912   0.681165   x 
            x  Al          28         0.424605   0.562047   0.684294   x 
            x  Al          29         0.181207   0.559067   0.679873   x 
            x  Al          30         0.946377   0.309790   0.687208   x 
            x  Al          31         0.934381   0.566498   0.929707   x 
            x  Al          32         0.804113   0.445963   0.436694   x 
            x  Al          33         0.800887   0.302280   0.560803   x 
            x  Al          34         0.555170   0.185073   0.681954   x 
            x  Al          35         0.308965   0.321381   0.563243   x 
            x  Al          36         0.935960   0.938684   0.309947   x 
            x  Al          37         0.804508   0.932474   0.183494   x 
            x  Al          38         0.685887   0.061561   0.436468   x 
            x  Al          39         0.558619   0.055441   0.305610   x 
            x  Al          40         0.174974   0.058583   0.436110   x 
            x  Al          41         0.687925   0.822999   0.443756   x 
            x  Al          42         0.815878   0.685673   0.438999   x 
            x  Al          43         0.559226   0.816523   0.312056   x 
            x  Al          44         0.942127   0.444454   0.303003   x 
            x  Al          45         0.423423   0.434365   0.321335   x 
            x  Al          46         0.563716   0.573244   0.313481   x 
            x  Al          47         0.309801   0.550496   0.538006   x 
            x  Al          48         0.943942   0.306170   0.436582   x 
            x  Al          49         0.803099   0.304576   0.304276   x 
            x  Al          50         0.433143   0.195679   0.308119   x 
            x  Al          51         0.305473   0.187272   0.438015   x 
            x  Al          52         0.804594   0.067161   0.057576   x 
            x  Al          53         0.808935   0.691436   0.186213   x 
            x  Al          54         0.560402   0.811427   0.055247   x 
            x  Al          55         0.425379   0.814303   0.189313   x 
            x  Al          56         0.298155   0.808323   0.061034   x 
            x  Al          57         0.801951   0.308771   0.064509   x 
            x  Al          58         0.800435   0.308136   0.815512   x 
            x  Al          59         0.940226   0.442489   0.071164   x 
            x  Al          60         0.560813   0.431998   0.186354   x 
            x  Ni           1         0.058242   0.189032   0.186664   x 
            x  Ni           2         0.057973   0.313429   0.062467   x 
            x  Ni           3         0.058477   0.438011   0.188033   x 
            x  Ni           4         0.057793   0.562664   0.063345   x 
            x  Ni           5         0.056474   0.688227   0.187777   x 
            x  Ni           6         0.058230   0.813759   0.061800   x 
            x  Ni           7         0.057438   0.939344   0.185452   x 
            x  Ni           8         0.058336   0.064888   0.061610   x 
            x  Ni           9         0.057115   0.189274   0.435203   x 
            x  Ni          10         0.058184   0.313646   0.311135   x 
            x  Ni          11         0.056250   0.437651   0.434155   x 
            x  Ni          12         0.056478   0.563026   0.310583   x 
            x  Ni          13         0.053890   0.690270   0.433692   x 
            x  Ni          14         0.055201   0.814462   0.309670   x 
            x  Ni          15         0.053447   0.938707   0.435084   x 
            x  Ni          16         0.055782   0.063965   0.309904   x 
            x  Ni          17         0.055375   0.190538   0.684847   x 
            x  Ni          18         0.055990   0.313853   0.559715   x 
            x  Ni          19         0.058110   0.436974   0.685817   x 
            x  Ni          20         0.056953   0.564221   0.559407   x 
            x  Ni          21         0.060272   0.688868   0.684822   x 
            x  Ni          22         0.053511   0.815269   0.559638   x 
            x  Ni          23         0.055874   0.940775   0.685620   x 
            x  Ni          24         0.054865   0.065009   0.560525   x 
            x  Ni          25         0.057293   0.189383   0.936991   x 
            x  Ni          26         0.056244   0.312055   0.811536   x 
            x  Ni          27         0.060469   0.437610   0.937279   x 
            x  Ni          28         0.067160   0.562684   0.811649   x 
            x  Ni          29         0.060427   0.688306   0.935677   x 
            x  Ni          30         0.056767   0.815365   0.810396   x 
            x  Ni          31         0.058213   0.940632   0.935041   x 
            x  Ni          32         0.056231   0.066582   0.810326   x 
            x  Ni          33         0.183209   0.313321   0.187080   x 
            x  Ni          34         0.306526   0.189505   0.187072   x 
            x  Ni          35         0.307843   0.313163   0.062150   x 
            x  Ni          36         0.181485   0.189760   0.061534   x 
            x  Ni          37         0.432215   0.315181   0.185617   x 
            x  Ni          38         0.553106   0.183374   0.184547   x 
            x  Ni          39         0.557419   0.313104   0.059537   x 
            x  Ni          40         0.430535   0.186526   0.062098   x 
            x  Ni          41         0.680730   0.310085   0.184595   x 
            x  Ni          42         0.808000   0.184503   0.183997   x 
            x  Ni          43         0.679449   0.185866   0.060124   x 
            x  Ni          44         0.933716   0.312813   0.186241   x 
            x  Ni          45         0.933223   0.567742   0.185237   x 
            x  Ni          46         0.937262   0.188145   0.061768   x 
            x  Ni          47         0.183356   0.563183   0.188303   x 
            x  Ni          48         0.307825   0.438629   0.189655   x 
            x  Ni          49         0.308646   0.564420   0.065464   x 
            x  Ni          50         0.182483   0.437380   0.064082   x 
            x  Ni          51         0.435248   0.561756   0.192850   x 
            x  Ni          52         0.682386   0.442410   0.061363   x 
            x  Ni          53         0.433125   0.440915   0.063933   x 
            x  Ni          54         0.682443   0.567377   0.186354   x 
            x  Ni          55         0.933133   0.690077   0.311482   x 
            x  Ni          56         0.809153   0.564138   0.059464   x 
            x  Ni          57         0.181428   0.812504   0.188227   x 
            x  Ni          58         0.305961   0.687112   0.190625   x 
            x  Ni          59         0.179110   0.687227   0.063307   x 
            x  Ni          60         0.557817   0.694811   0.187553   x 
            x  Ni          61         0.429818   0.690511   0.062179   x 
            x  Ni          62         0.683211   0.813100   0.184106   x 
            x  Ni          63         0.934755   0.688353   0.059508   x 
            x  Ni          64         0.808271   0.814379   0.056618   x 
            x  Ni          65         0.932233   0.815287   0.184090   x 
            x  Ni          66         0.183194   0.064313   0.186968   x 
            x  Ni          67         0.301419   0.935969   0.184878   x 
            x  Ni          68         0.303022   0.063474   0.059275   x 
            x  Ni          69         0.178960   0.939045   0.060214   x 
            x  Ni          70         0.427102   0.934089   0.058486   x 
            x  Ni          71         0.555034   0.934318   0.180955   x 
            x  Ni          72         0.427077   0.814305   0.937163   x 
            x  Ni          73         0.555345   0.937459   0.936042   x 
            x  Ni          74         0.681979   0.059199   0.183321   x 
            x  Ni          75         0.934556   0.940504   0.059830   x 
            x  Ni          76         0.683594   0.937709   0.056418   x 
            x  Ni          77         0.932959   0.060047   0.183909   x 
            x  Ni          78         0.811023   0.942157   0.931636   x 
            x  Ni          79         0.184104   0.314200   0.437530   x 
            x  Ni          80         0.305138   0.313393   0.314704   x 
            x  Ni          81         0.181068   0.187761   0.312924   x 
            x  Ni          82         0.431236   0.311558   0.437414   x 
            x  Ni          83         0.557174   0.185283   0.433170   x 
            x  Ni          84         0.558561   0.313046   0.310722   x 
            x  Ni          85         0.685564   0.310337   0.432842   x 
            x  Ni          86         0.810736   0.185095   0.434751   x 
            x  Ni          87         0.679795   0.182482   0.309498   x 
            x  Ni          88         0.937316   0.186019   0.309148   x 
            x  Ni          89         0.178728   0.564614   0.435475   x 
            x  Ni          90         0.307489   0.562133   0.318214   x 
            x  Ni          91         0.183550   0.438707   0.313758   x 
            x  Ni          92         0.438782   0.566214   0.432049   x 
            x  Ni          93         0.560265   0.439018   0.433246   x 
            x  Ni          94         0.683717   0.566985   0.437144   x 
            x  Ni          95         0.683249   0.438640   0.310099   x 
            x  Ni          96         0.807531   0.564779   0.310236   x 
            x  Ni          97         0.807767   0.438486   0.186928   x 
            x  Ni          98         0.934822   0.560393   0.436555   x 
            x  Ni          99         0.180098   0.817292   0.433656   x 
            x  Ni         100         0.306029   0.690039   0.436036   x 
            x  Ni         101         0.305542   0.814078   0.312843   x 
            x  Ni         102         0.179454   0.688749   0.312990   x 
            x  Ni         103         0.432574   0.815717   0.434757   x 
            x  Ni         104         0.561250   0.694311   0.438052   x 
            x  Ni         105         0.433055   0.691633   0.312614   x 
            x  Ni         106         0.684294   0.937767   0.311593   x 
            x  Ni         107         0.687154   0.694974   0.315904   x 
            x  Ni         108         0.933299   0.816216   0.438721   x 
            x  Ni         109         0.808634   0.815726   0.313668   x 
            x  Ni         110         0.305067   0.941128   0.436243   x 
            x  Ni         111         0.306142   0.065009   0.312282   x 
            x  Ni         112         0.178995   0.939331   0.311038   x 
            x  Ni         113         0.432036   0.065013   0.432108   x 
            x  Ni         114         0.558132   0.940201   0.436464   x 
            x  Ni         115         0.430395   0.938505   0.310164   x 
            x  Ni         116         0.813120   0.942853   0.438518   x 
            x  Ni         117         0.808808   0.061804   0.308242   x 
            x  Ni         118         0.936034   0.063535   0.436982   x 
            x  Ni         119         0.182810   0.312381   0.684036   x 
            x  Ni         120         0.308981   0.190000   0.683186   x 
            x  Ni         121         0.181197   0.190188   0.559166   x 
            x  Ni         122         0.438333   0.315347   0.686364   x 
            x  Ni         123         0.433105   0.188612   0.810284   x 
            x  Ni         124         0.560478   0.310891   0.558309   x 
            x  Ni         125         0.431486   0.189119   0.559398   x 
            x  Ni         126         0.681958   0.182704   0.559927   x 
            x  Ni         127         0.939286   0.188529   0.562201   x 
            x  Ni         128         0.307088   0.438711   0.683182   x 
            x  Ni         129         0.180031   0.437907   0.557649   x 
            x  Ni         130         0.556988   0.565346   0.560728   x 
            x  Ni         131         0.686437   0.692027   0.558458   x 
            x  Ni         132         0.436230   0.438129   0.556872   x 
            x  Ni         133         0.552102   0.568272   0.806939   x 
            x  Ni         134         0.682909   0.437212   0.558071   x 
            x  Ni         135         0.932397   0.431659   0.561657   x 
            x  Ni         136         0.811252   0.562657   0.563963   x 
            x  Ni         137         0.181647   0.815366   0.682067   x 
            x  Ni         138         0.302023   0.685732   0.678150   x 
            x  Ni         139         0.306339   0.814414   0.556355   x 
            x  Ni         140         0.431157   0.812882   0.682150   x 
            x  Ni         141         0.558268   0.817083   0.558784   x 
            x  Ni         142         0.430841   0.687613   0.560020   x 
            x  Ni         143         0.684845   0.816749   0.685468   x 
            x  Ni         144         0.681018   0.565736   0.685725   x 
            x  Ni         145         0.811481   0.817089   0.563974   x 
            x  Ni         146         0.934408   0.814165   0.688446   x 
            x  Ni         147         0.936476   0.688282   0.564824   x 
            x  Ni         148         0.304175   0.064260   0.559517   x 
            x  Ni         149         0.178349   0.939156   0.561272   x 
            x  Ni         150         0.430558   0.062432   0.684038   x 
            x  Ni         151         0.555669   0.939009   0.683660   x 
            x  Ni         152         0.556905   0.063378   0.559035   x 
            x  Ni         153         0.431051   0.939633   0.559082   x 
            x  Ni         154         0.682751   0.064352   0.687400   x 
            x  Ni         155         0.809381   0.941394   0.691313   x 
            x  Ni         156         0.686337   0.944332   0.563734   x 
            x  Ni         157         0.938115   0.066188   0.690409   x 
            x  Ni         158         0.936866   0.941192   0.565766   x 
            x  Ni         159         0.184312   0.311836   0.937417   x 
            x  Ni         160         0.307783   0.187684   0.934744   x 
            x  Ni         161         0.310163   0.312431   0.809216   x 
            x  Ni         162         0.181970   0.191225   0.809919   x 
            x  Ni         163         0.430764   0.315888   0.938269   x 
            x  Ni         164         0.553691   0.187508   0.937888   x 
            x  Ni         165         0.678686   0.311704   0.687987   x 
            x  Ni         166         0.429329   0.061477   0.936207   x 
            x  Ni         167         0.682342   0.315204   0.939423   x 
            x  Ni         168         0.811436   0.188409   0.937075   x 
            x  Ni         169         0.809870   0.192053   0.688551   x 
            x  Ni         170         0.678049   0.187889   0.812248   x 
            x  Ni         171         0.934357   0.433617   0.808976   x 
            x  Ni         172         0.939398   0.190039   0.813002   x 
            x  Ni         173         0.305310   0.437185   0.937334   x 
            x  Ni         174         0.298874   0.563020   0.810030   x 
            x  Ni         175         0.554498   0.684551   0.933976   x 
            x  Ni         176         0.432432   0.439649   0.809855   x 
            x  Ni         177         0.684503   0.688028   0.057405   x 
            x  Ni         178         0.814231   0.435408   0.939185   x 
            x  Ni         179         0.811491   0.563153   0.806815   x 
            x  Ni         180         0.680953   0.439196   0.812909   x 
            x  Ni         181         0.181424   0.815507   0.935318   x 
            x  Ni         182         0.302698   0.688943   0.935546   x 
            x  Ni         183         0.305715   0.820299   0.808671   x 
            x  Ni         184         0.556036   0.810846   0.810732   x 
            x  Ni         185         0.556426   0.446462   0.938539   x 
            x  Ni         186         0.684150   0.812930   0.932216   x 
            x  Ni         187         0.811623   0.690262   0.932663   x 
            x  Ni         188         0.683994   0.690681   0.808424   x 
            x  Ni         189         0.935937   0.690538   0.807965   x 
            x  Ni         190         0.181008   0.066969   0.933489   x 
            x  Ni         191         0.307161   0.062440   0.806584   x 
            x  Ni         192         0.179979   0.940946   0.806108   x 
            x  Ni         193         0.555739   0.065359   0.811283   x 
            x  Ni         194         0.683230   0.063277   0.933246   x 
            x  Ni         195         0.938373   0.939873   0.812789   x 
            xxxxxxxxxxxxxxxxxxxxxxxxxxxxxxxxxxxxxxxxxxxxxxxxxxxxxxxxxxxx
 
 
                         No user defined ionic velocities
 
                           -------------------------------
                                   Details of Species
                           -------------------------------
 
                               Mass of species in AMU
                                    Al   26.9815400
                                    Ni   58.6934000
 
                          Electric Quadrupole Moment (Barn)
                                    Al    0.1466000 Isotope 27
                                    Ni    0.1620000 Isotope 61
 
                          Files used for pseudopotentials:
                                    Al 3|2.2|2.2|1.4|4|5|5|30:31:32U2U2
                                    Ni 3|2.4|2.4|1.0|8|9|10|40:41:32U2U2(qc=5.5)
 
                           -------------------------------
                              k-Points For BZ Sampling
                           -------------------------------
                       MP grid size for SCF calculation is  1  1  1
                            with an offset of   0.000  0.000  0.000
                       Number of kpoints used =             1
 
                           -------------------------------
                               Symmetry and Constraints
                           -------------------------------
 
                      Maximum deviation from symmetry =  0.00000         ANG
 
                      Number of symmetry operations   =           1
                      Number of ionic constraints     =           3
                      Point group of crystal =     1: C1, 1, 1
                      Space group of crystal =     1: P1, P 1
 
             Set iprint > 1 for details on symmetry rotations/translations
 
                         Centre of mass is constrained
             Set iprint > 1 for details of linear ionic constraints
 
                         Number of cell constraints= 6
                         Cell constraints are:  0 0 0 0 0 0
 
                         External pressure/stress (GPa)
                          0.00000   0.00000   0.00000
                                    0.00000   0.00000
                                              0.00000
  
+---------------- MEMORY AND SCRATCH DISK ESTIMATES PER PROCESS --------------+
|                                                     Memory          Disk    |
| Baseline code, static data and system overhead      368.0 MB         0.0 MB |
| BLAS internal memory storage                          0.0 MB         0.0 MB |
| Model and support data                             1080.6 MB         0.0 MB |
| Electronic energy minimisation requirements         264.2 MB         0.0 MB |
| Force calculation requirements                        9.2 MB         0.0 MB |
|                                               ----------------------------- |
| Approx. total storage required per process         1712.8 MB         0.0 MB |
|                                                                             |
| Requirements will fluctuate during execution and may exceed these estimates |
+-----------------------------------------------------------------------------+
Calculating total energy with cut-off of  900.000 eV.
------------------------------------------------------------------------ <-- SCF
SCF loop      Energy           Fermi           Energy gain       Timer   <-- SCF
                               energy          per atom          (sec)   <-- SCF
------------------------------------------------------------------------ <-- SCF
Initial  -2.22666403E+005  0.00000000E+000                        24.90  <-- SCF
      1  -2.67420790E+005  7.09556352E+000   1.75507399E+002     125.28  <-- SCF
      2  -2.74416572E+005  3.66149785E+000   2.74344410E+001     228.88  <-- SCF
      3  -2.75145456E+005  3.54901524E+000   2.85836805E+000     334.84  <-- SCF
      4  -2.75206345E+005  3.68873152E+000   2.38778838E-001     429.93  <-- SCF
      5  -2.75600005E+005  6.75840831E+000   1.54376415E+000     551.94  <-- SCF
      6  -2.75296389E+005  5.54632349E+000  -1.19064986E+000     688.99  <-- SCF
      7  -2.75197438E+005  4.68453304E+000  -3.88042740E-001     813.18  <-- SCF
      8  -2.75174059E+005  4.35774454E+000  -9.16817355E-002     942.80  <-- SCF
      9  -2.75171244E+005  4.37350803E+000  -1.10386854E-002    1064.91  <-- SCF
     10  -2.75183368E+005  4.48265140E+000   4.75442286E-002    1184.84  <-- SCF
     11  -2.75169197E+005  4.35546173E+000  -5.55723181E-002    1308.37  <-- SCF
     12  -2.75166444E+005  4.33016454E+000  -1.07958918E-002    1428.01  <-- SCF
     13  -2.75167287E+005  4.33465683E+000   3.30482618E-003    1546.47  <-- SCF
     14  -2.75166438E+005  4.33951725E+000  -3.32896964E-003    1664.57  <-- SCF
     15  -2.75166038E+005  4.33804329E+000  -1.56997914E-003    1788.09  <-- SCF
     16  -2.75166052E+005  4.33954455E+000   5.77250551E-005    1910.09  <-- SCF
     17  -2.75166081E+005  4.34204588E+000   1.12186755E-004    2031.66  <-- SCF
     18  -2.75165969E+005  4.34158909E+000  -4.39723057E-004    2151.25  <-- SCF
     19  -2.75165980E+005  4.34118164E+000   4.36427544E-005    2271.97  <-- SCF
     20  -2.75165986E+005  4.34357264E+000   2.32623934E-005    2390.55  <-- SCF
     21  -2.75165955E+005  4.34274684E+000  -1.19936499E-004    2507.60  <-- SCF
     22  -2.75165955E+005  4.34300628E+000  -3.09698106E-006    2626.27  <-- SCF
     23  -2.75165958E+005  4.34308969E+000   1.18485761E-005    2742.64  <-- SCF
     24  -2.75165953E+005  4.34310342E+000  -1.76816730E-005    2856.05  <-- SCF
     25  -2.75165953E+005  4.34321763E+000  -1.64386411E-006    2937.30  <-- SCF
     26  -2.75165953E+005  4.34312523E+000   4.55325923E-007    3018.19  <-- SCF
     27  -2.75165953E+005  4.34326941E+000  -1.53251360E-007    3102.14  <-- SCF
------------------------------------------------------------------------ <-- SCF
 
Final energy, E             =  -275160.7406828     eV
Final free energy (E-TS)    =  -275165.9526751     eV
(energies not corrected for finite basis set)
 
NB est. 0K energy (E-0.5TS)      =  -275163.3466790     eV
 

Writing analysis data to castep.castep_bin

Writing model to castep.check
 
+---------------- MEMORY AND SCRATCH DISK ESTIMATES PER PROCESS --------------+
|                                                     Memory          Disk    |
| Model and support data                             1090.0 MB         0.0 MB |
| Electronic energy minimisation requirements         264.2 MB         0.0 MB |
| Geometry minimisation requirements                  327.2 MB         0.0 MB |
|                                               ----------------------------- |
| Approx. total storage required per process         1681.4 MB         0.0 MB |
|                                                                             |
| Requirements will fluctuate during execution and may exceed these estimates |
+-----------------------------------------------------------------------------+
 
 
 ************************************** Forces **************************************
 *                                                                                  *
 *                           Cartesian components (eV/A)                            *
 * -------------------------------------------------------------------------------- *
 *                         x                    y                    z              *
 *                                                                                  *
 * Al              1     -0.37593              0.01604              0.14317         *
 * Al              2     -0.05844              0.05538              0.01914         *
 * Al              3      0.07646             -0.06474             -0.17466         *
 * Al              4     -0.17180             -0.02581             -0.17704         *
 * Al              5      0.18359              0.14812              0.05011         *
 * Al              6     -0.01305              0.22507              0.22398         *
 * Al              7      0.04323              0.06145             -0.19664         *
 * Al              8     -0.11842              0.03106              0.07908         *
 * Al              9      0.04394              0.04808              0.23922         *
 * Al             10      0.03287             -0.14869             -0.08326         *
 * Al             11      0.00705              0.06692             -0.00948         *
 * Al             12     -0.01182             -0.12158              0.12230         *
 * Al             13      0.04421              0.11219              0.07710         *
 * Al             14     -0.17616             -0.09782              0.03753         *
 * Al             15     -0.04561              0.01447             -0.00394         *
 * Al             16     -0.10960              0.08583              0.13926         *
 * Al             17      0.17456             -0.13688             -0.00373         *
 * Al             18     -0.02209              0.08388              0.25466         *
 * Al             19      0.12714             -0.13693             -0.06365         *
 * Al             20     -0.17093             -0.24559             -0.08011         *
 * Al             21      0.02554             -0.01174              0.04401         *
 * Al             22     -0.00846              0.10015              0.03479         *
 * Al             23      0.08721              0.19511              0.01819         *
 * Al             24     -0.02945              0.23074             -0.24502         *
 * Al             25      0.08188              0.25279             -0.07510         *
 * Al             26     -0.22387              0.35209              0.14294         *
 * Al             27     -0.04055             -0.04077             -0.07142         *
 * Al             28     -0.09129             -0.25077             -0.19501         *
 * Al             29     -0.15919             -0.10561              0.07018         *
 * Al             30     -0.52938              0.03133             -0.14919         *
 * Al             31      0.15325              0.09645              0.03256         *
 * Al             32     -0.33194              0.44062              0.17719         *
 * Al             33     -0.29476             -0.21421             -0.07321         *
 * Al             34      0.05234             -0.18425             -0.06914         *
 * Al             35     -0.06431             -0.01299             -0.03481         *
 * Al             36      0.20131             -0.00002              0.49876         *
 * Al             37     -0.23710              0.01935             -0.02927         *
 * Al             38     -0.02979              0.07557             -0.02727         *
 * Al             39      0.04301             -0.04538              0.15040         *
 * Al             40     -0.14163             -0.08906              0.02665         *
 * Al             41     -0.00855             -0.01175              0.05528         *
 * Al             42      0.14677             -0.10148             -0.02421         *
 * Al             43      0.10847             -0.02794              0.14877         *
 * Al             44     -0.38047              0.17294             -0.12864         *
 * Al             45     -0.29092              0.00390              0.17431         *
 * Al             46      0.12442              0.15086              0.17482         *
 * Al             47      0.06829             -0.20091             -0.29782         *
 * Al             48     -0.09513             -0.14515              0.00727         *
 * Al             49     -0.26092             -0.24913             -0.32192         *
 * Al             50     -0.09916              0.20839              0.02181         *
 * Al             51      0.00760              0.19201             -0.10375         *
 * Al             52     -0.01024              0.07316              0.11508         *
 * Al             53     -0.01736              0.02378             -0.17304         *
 * Al             54      0.08304              0.01347             -0.23925         *
 * Al             55     -0.06244             -0.04834              0.09102         *
 * Al             56     -0.26105             -0.10751             -0.06693         *
 * Al             57     -0.13035             -0.00658              0.25036         *
 * Al             58     -0.24614              0.04168              0.12014         *
 * Al             59     -0.27933              0.01463              0.03715         *
 * Al             60      0.04239             -0.34329             -0.24229         *
 * Ni              1      0.04522             -0.02627             -0.09891         *
 * Ni              2      0.29419              0.10229              0.05750         *
 * Ni              3      0.80091             -0.04560             -0.17484         *
 * Ni              4     -0.09089              0.22106             -0.06777         *
 * Ni              5      0.11523              0.01185             -0.14448         *
 * Ni              6      0.27900             -0.04057              0.12613         *
 * Ni              7      0.19831             -0.02457             -0.05738         *
 * Ni              8      0.37032             -0.08539              0.29827         *
 * Ni              9      0.54929             -0.41746             -0.00129         *
 * Ni             10      0.25858             -0.06273             -0.15089         *
 * Ni             11      0.34421              0.06873              0.18801         *
 * Ni             12      0.34187              0.46605              0.03767         *
 * Ni             13      0.04581             -0.01247              0.04506         *
 * Ni             14      0.07138             -0.07833              0.09012         *
 * Ni             15      0.22665             -0.13638              0.13615         *
 * Ni             16      0.27590              0.01551             -0.20816         *
 * Ni             17      0.71979             -0.32078              0.14651         *
 * Ni             18      0.90478              0.07968             -0.00076         *
 * Ni             19      0.43973             -0.05914             -0.11883         *
 * Ni             20      0.15021             -0.19718             -0.26320         *
 * Ni             21      0.17003              0.16879              0.19296         *
 * Ni             22      0.23591              0.07478              0.15345         *
 * Ni             23      0.17361             -0.21270              0.07373         *
 * Ni             24      0.23805             -0.08956              0.01918         *
 * Ni             25      0.78049              0.09590              0.03251         *
 * Ni             26      0.81346              0.08831              0.10345         *
 * Ni             27     -0.16926              0.12652              0.13900         *
 * Ni             28      0.19899             -0.00093              0.05966         *
 * Ni             29      0.12340             -0.10735              0.06760         *
 * Ni             30      0.24223              0.03825             -0.23322         *
 * Ni             31      0.54445             -0.25808              0.10939         *
 * Ni             32      0.78296             -0.11357             -0.04278         *
 * Ni             33      0.05003              0.03956              0.11474         *
 * Ni             34     -0.07419             -0.02589              0.00566         *
 * Ni             35     -0.08810              0.08468              0.07442         *
 * Ni             36      0.11407             -0.14483              0.04753         *
 * Ni             37     -0.15145             -0.01233             -0.13423         *
 * Ni             38      0.00371              0.01746              0.17975         *
 * Ni             39     -0.25008             -0.00602             -0.02554         *
 * Ni             40     -0.03521              0.03997             -0.07581         *
 * Ni             41     -0.05579             -0.11919              0.09114         *
 * Ni             42      0.07335             -0.14057              0.11455         *
 * Ni             43      0.00990              0.22884             -0.05223         *
 * Ni             44     -0.02916             -0.25037              0.11002         *
 * Ni             45     -0.04771              0.15898              0.18853         *
 * Ni             46     -0.31555              0.02359              0.15766         *
 * Ni             47     -0.07918             -0.07126              0.12750         *
 * Ni             48     -0.09214              0.06941             -0.11182         *
 * Ni             49     -0.14047             -0.07968              0.06550         *
 * Ni             50      0.12845             -0.05222              0.04107         *
 * Ni             51      0.07904             -0.02905              0.14805         *
 * Ni             52     -0.05953              0.08252             -0.12365         *
 * Ni             53      0.06356              0.06566             -0.02384         *
 * Ni             54      0.08850             -0.39313              0.05254         *
 * Ni             55     -0.06106              0.00572             -0.07559         *
 * Ni             56      0.09779             -0.10232              0.08292         *
 * Ni             57     -0.25838             -0.03202              0.09136         *
 * Ni             58      0.06305              0.00187             -0.06454         *
 * Ni             59      0.05675              0.07103              0.22463         *
 * Ni             60     -0.05493             -0.00750             -0.06598         *
 * Ni             61     -0.02855              0.04369              0.19006         *
 * Ni             62      0.01881             -0.04684              0.02956         *
 * Ni             63      0.00272             -0.00514              0.11580         *
 * Ni             64     -0.00246             -0.16583             -0.09048         *
 * Ni             65      0.17775             -0.05646              0.04095         *
 * Ni             66     -0.13481              0.08294              0.00361         *
 * Ni             67     -0.03621             -0.09856              0.09613         *
 * Ni             68     -0.16540              0.21898             -0.03303         *
 * Ni             69      0.13852              0.04022              0.11398         *
 * Ni             70      0.00454             -0.03001              0.17218         *
 * Ni             71      0.22973              0.11653              0.13395         *
 * Ni             72      0.02080              0.07575             -0.15506         *
 * Ni             73      0.02374             -0.04362              0.14759         *
 * Ni             74      0.24438              0.27420              0.01542         *
 * Ni             75     -0.07448              0.10530              0.17439         *
 * Ni             76      0.21655             -0.09932             -0.03451         *
 * Ni             77     -0.17953              0.17708             -0.04561         *
 * Ni             78     -0.27193             -0.04177              0.09765         *
 * Ni             79     -0.14576              0.03716             -0.17163         *
 * Ni             80     -0.24554             -0.17044             -0.28273         *
 * Ni             81      0.13473              0.01740             -0.07198         *
 * Ni             82      0.32255             -0.16056              0.23182         *
 * Ni             83      0.09946             -0.04304              0.10106         *
 * Ni             84      0.07242              0.04095              0.15163         *
 * Ni             85     -0.11636              0.13497              0.04018         *
 * Ni             86      0.19044              0.09094             -0.15195         *
 * Ni             87     -0.02169              0.06498             -0.09155         *
 * Ni             88     -0.52629              0.05492             -0.01266         *
 * Ni             89     -0.09221              0.02509             -0.15772         *
 * Ni             90     -0.15020              0.14000             -0.14310         *
 * Ni             91     -0.01176             -0.02109              0.00250         *
 * Ni             92      0.05506              0.05422              0.12790         *
 * Ni             93     -0.14920             -0.10725              0.02821         *
 * Ni             94     -0.13526             -0.00101              0.09873         *
 * Ni             95      0.01211              0.11592              0.00339         *
 * Ni             96      0.02685             -0.06827              0.01618         *
 * Ni             97     -0.21953              0.12264             -0.12501         *
 * Ni             98     -0.02216              0.08407             -0.04202         *
 * Ni             99     -0.12825              0.02228             -0.04593         *
 * Ni            100      0.09019             -0.13551             -0.17731         *
 * Ni            101     -0.26029              0.08334              0.09566         *
 * Ni            102      0.19258              0.02816             -0.07157         *
 * Ni            103     -0.21336             -0.09936              0.18807         *
 * Ni            104     -0.27528              0.09081              0.09092         *
 * Ni            105     -0.12651             -0.05176             -0.00229         *
 * Ni            106     -0.02181             -0.03516             -0.07691         *
 * Ni            107     -0.13926             -0.04015             -0.12701         *
 * Ni            108     -0.08880             -0.19236             -0.13940         *
 * Ni            109      0.24386             -0.03392             -0.02771         *
 * Ni            110      0.21118             -0.17402             -0.13422         *
 * Ni            111     -0.11397              0.04430             -0.01040         *
 * Ni            112      0.14705             -0.06872             -0.22102         *
 * Ni            113     -0.00702              0.04323              0.15759         *
 * Ni            114     -0.23408             -0.01099              0.10165         *
 * Ni            115     -0.09765              0.08846              0.11482         *
 * Ni            116     -0.03372              0.01475              0.09868         *
 * Ni            117      0.25524              0.09443             -0.09689         *
 * Ni            118     -0.11779              0.24684             -0.18922         *
 * Ni            119     -0.08742             -0.19707             -0.03789         *
 * Ni            120      0.02189             -0.00443              0.12711         *
 * Ni            121     -0.01217              0.05907             -0.20063         *
 * Ni            122     -0.04225             -0.10670              0.10590         *
 * Ni            123     -0.10038              0.00410             -0.02724         *
 * Ni            124     -0.11177              0.04916             -0.22245         *
 * Ni            125     -0.00777             -0.10211             -0.07084         *
 * Ni            126      0.01044              0.18247             -0.10472         *
 * Ni            127     -0.66947              0.15378             -0.04934         *
 * Ni            128      0.01872              0.21473              0.12076         *
 * Ni            129     -0.13916              0.03079             -0.04522         *
 * Ni            130      0.07644              0.05165             -0.05401         *
 * Ni            131     -0.12856             -0.30477             -0.15384         *
 * Ni            132      0.31021              0.15364             -0.03826         *
 * Ni            133     -0.22113              0.08926             -0.39005         *
 * Ni            134      0.15454              0.00744             -0.01471         *
 * Ni            135     -0.57583              0.03448             -0.10533         *
 * Ni            136     -0.02704             -0.01687              0.11664         *
 * Ni            137     -0.15813              0.12247              0.08196         *
 * Ni            138     -0.01436              0.06336             -0.07595         *
 * Ni            139      0.11834              0.00399              0.11818         *
 * Ni            140      0.01889              0.06811             -0.12539         *
 * Ni            141     -0.23080              0.13082              0.20529         *
 * Ni            142      0.05922              0.04793             -0.13489         *
 * Ni            143      0.10751              0.22747             -0.12458         *
 * Ni            144     -0.03686             -0.11815             -0.07906         *
 * Ni            145      0.14137              0.15833             -0.16424         *
 * Ni            146     -0.07183              0.13659             -0.16148         *
 * Ni            147     -0.12379              0.00825             -0.09855         *
 * Ni            148      0.26618             -0.03022              0.03572         *
 * Ni            149      0.09511             -0.08692             -0.00853         *
 * Ni            150     -0.07349              0.05142             -0.01513         *
 * Ni            151      0.06371              0.05924             -0.30501         *
 * Ni            152     -0.31215             -0.25740              0.07087         *
 * Ni            153      0.11953              0.07288             -0.24447         *
 * Ni            154     -0.07864             -0.02114              0.02753         *
 * Ni            155      0.08002             -0.12875              0.02167         *
 * Ni            156     -0.11829             -0.02491              0.20362         *
 * Ni            157     -0.31047             -0.10085             -0.16650         *
 * Ni            158     -0.43678             -0.12495             -0.28553         *
 * Ni            159     -0.05309             -0.15214              0.16976         *
 * Ni            160     -0.00626              0.04953              0.06759         *
 * Ni            161      0.10732             -0.01742              0.05723         *
 * Ni            162      0.10655             -0.01645              0.07888         *
 * Ni            163     -0.08002             -0.15324              0.01178         *
 * Ni            164      0.21840             -0.07422             -0.02836         *
 * Ni            165      0.14407             -0.08796             -0.11324         *
 * Ni            166      0.00666              0.18015             -0.15695         *
 * Ni            167     -0.19659             -0.09599              0.04465         *
 * Ni            168     -0.21364              0.00091              0.01251         *
 * Ni            169      0.00079              0.05839              0.04537         *
 * Ni            170      0.09041              0.12114              0.14934         *
 * Ni            171     -0.33509             -0.00518             -0.13385         *
 * Ni            172     -0.75656             -0.09842             -0.13858         *
 * Ni            173     -0.07728             -0.07102             -0.00420         *
 * Ni            174     -0.09630             -0.06627             -0.09547         *
 * Ni            175      0.03055              0.01860             -0.05077         *
 * Ni            176     -0.17615             -0.17454             -0.11337         *
 * Ni            177      0.08403              0.08815             -0.00112         *
 * Ni            178      0.25592             -0.28677              0.07468         *
 * Ni            179      0.04633              0.08323             -0.15805         *
 * Ni            180      0.08842             -0.02260             -0.00654         *
 * Ni            181     -0.23852              0.17343              0.08896         *
 * Ni            182      0.22613             -0.05157              0.03092         *
 * Ni            183     -0.08750              0.10111             -0.03111         *
 * Ni            184      0.00466             -0.28960             -0.00597         *
 * Ni            185      0.00328             -0.02610              0.22141         *
 * Ni            186      0.02015             -0.02296              0.00210         *
 * Ni            187     -0.14006              0.13644              0.18777         *
 * Ni            188      0.06612             -0.15786              0.22683         *
 * Ni            189     -0.00820             -0.01517             -0.10303         *
 * Ni            190     -0.11696              0.02024             -0.03496         *
 * Ni            191      0.06831              0.04503              0.00101         *
 * Ni            192     -0.11426             -0.00560              0.05176         *
 * Ni            193     -0.28988              0.09577              0.16047         *
 * Ni            194     -0.23806              0.13994             -0.12000         *
 * Ni            195     -0.33238             -0.00470             -0.26578         *
 *                                                                                  *
 ************************************************************************************
 LBFGS: finished iteration     0 with enthalpy= -2.75165953E+005 eV
  
 +-----------+-----------------+-----------------+------------+-----+ <-- LBFGS
 | Parameter |      value      |    tolerance    |    units   | OK? | <-- LBFGS
 +-----------+-----------------+-----------------+------------+-----+ <-- LBFGS
 |  dE/ion   |   0.000000E+000 |   2.000000E-005 |         eV | No  | <-- LBFGS
 |  |F|max   |   9.082787E-001 |   5.000000E-002 |       eV/A | No  | <-- LBFGS
 |  |dR|max  |   0.000000E+000 |   1.000000E-003 |          A | No  | <-- LBFGS
 +-----------+-----------------+-----------------+------------+-----+ <-- LBFGS
  

================================================================================
 Starting LBFGS iteration          1 ...
================================================================================
  
 +------------+-------------+-------------+-----------------+ <-- min LBFGS
 |    Step    |   lambda    |   F.delta'  |    enthalpy     | <-- min LBFGS
 +------------+-------------+-------------+-----------------+ <-- min LBFGS
 |  previous  |    0.000000 |    2.458562 |  -275165.952675 | <-- min LBFGS
 +------------+-------------+-------------+-----------------+ <-- min LBFGS
  

--------------------------------------------------------------------------------
 LBFGS: starting iteration         1 with trial guess (lambda=  1.000000)
--------------------------------------------------------------------------------
 
                           -------------------------------
                                     Cell Contents
                           -------------------------------
 
            xxxxxxxxxxxxxxxxxxxxxxxxxxxxxxxxxxxxxxxxxxxxxxxxxxxxxxxxxxxxxxxxx
            x  Element         Atom        Fractional coordinates of atoms  x
            x                 Number           u          v          w      x
            x---------------------------------------------------------------x
            x  Al                1         0.946503   0.064643   0.935957   x
            x  Al                2         0.672034   0.939761   0.810221   x
            x  Al                3         0.809193   0.070192   0.808988   x
            x  Al                4         0.419743   0.056372   0.181011   x
            x  Al                5         0.439405   0.937318   0.809641   x
            x  Al                6         0.422427   0.698432   0.810161   x
            x  Al                7         0.559178   0.060399   0.056649   x
            x  Al                8         0.299152   0.944563   0.933420   x
            x  Al                9         0.940528   0.813968   0.939523   x
            x  Al               10         0.809830   0.816849   0.810967   x
            x  Al               11         0.556326   0.571618   0.066712   x
            x  Al               12         0.423181   0.560910   0.934674   x
            x  Al               13         0.182232   0.697850   0.808682   x
            x  Al               14         0.944301   0.310653   0.935395   x
            x  Al               15         0.689059   0.564677   0.929515   x
            x  Al               16         0.556770   0.314067   0.822316   x
            x  Al               17         0.181857   0.427047   0.811345   x
            x  Al               18         0.184212   0.562149   0.944786   x
            x  Al               19         0.815864   0.066671   0.569656   x
            x  Al               20         0.306637   0.936928   0.678873   x
            x  Al               21         0.177295   0.070626   0.684176   x
            x  Al               22         0.805977   0.687603   0.680300   x
            x  Al               23         0.563816   0.693856   0.678890   x
            x  Al               24         0.176363   0.696395   0.553344   x
            x  Al               25         0.944607   0.560440   0.687204   x
            x  Al               26         0.799474   0.441754   0.684816   x
            x  Al               27         0.563059   0.438907   0.681155   x
            x  Al               28         0.424593   0.562014   0.684268   x
            x  Al               29         0.181186   0.559053   0.679883   x
            x  Al               30         0.946307   0.309794   0.687188   x
            x  Al               31         0.934401   0.566511   0.929712   x
            x  Al               32         0.804069   0.446021   0.436717   x
            x  Al               33         0.800848   0.302251   0.560793   x
            x  Al               34         0.555176   0.185049   0.681944   x
            x  Al               35         0.308957   0.321379   0.563238   x
            x  Al               36         0.935986   0.938684   0.310012   x
            x  Al               37         0.804477   0.932477   0.183491   x
            x  Al               38         0.685883   0.061571   0.436465   x
            x  Al               39         0.558625   0.055435   0.305630   x
            x  Al               40         0.174955   0.058572   0.436113   x
            x  Al               41         0.687923   0.822998   0.443763   x
            x  Al               42         0.815898   0.685659   0.438996   x
            x  Al               43         0.559241   0.816519   0.312076   x
            x  Al               44         0.942077   0.444477   0.302986   x
            x  Al               45         0.423385   0.434366   0.321358   x
            x  Al               46         0.563732   0.573264   0.313504   x
            x  Al               47         0.309810   0.550470   0.537967   x
            x  Al               48         0.943930   0.306151   0.436583   x
            x  Al               49         0.803065   0.304543   0.304234   x
            x  Al               50         0.433130   0.195707   0.308122   x
            x  Al               51         0.305474   0.187297   0.438002   x
            x  Al               52         0.804593   0.067171   0.057591   x
            x  Al               53         0.808932   0.691439   0.186190   x
            x  Al               54         0.560413   0.811429   0.055216   x
            x  Al               55         0.425371   0.814297   0.189325   x
            x  Al               56         0.298120   0.808308   0.061025   x
            x  Al               57         0.801934   0.308770   0.064542   x
            x  Al               58         0.800403   0.308141   0.815528   x
            x  Al               59         0.940190   0.442491   0.071169   x
            x  Al               60         0.560819   0.431953   0.186322   x
            x  Ni                1         0.058248   0.189028   0.186651   x
            x  Ni                2         0.058012   0.313443   0.062474   x
            x  Ni                3         0.058583   0.438005   0.188010   x
            x  Ni                4         0.057781   0.562693   0.063337   x
            x  Ni                5         0.056489   0.688229   0.187758   x
            x  Ni                6         0.058267   0.813754   0.061817   x
            x  Ni                7         0.057464   0.939341   0.185444   x
            x  Ni                8         0.058385   0.064877   0.061649   x
            x  Ni                9         0.057187   0.189219   0.435203   x
            x  Ni               10         0.058218   0.313638   0.311115   x
            x  Ni               11         0.056295   0.437660   0.434179   x
            x  Ni               12         0.056523   0.563088   0.310588   x
            x  Ni               13         0.053896   0.690269   0.433698   x
            x  Ni               14         0.055211   0.814451   0.309682   x
            x  Ni               15         0.053477   0.938689   0.435102   x
            x  Ni               16         0.055818   0.063967   0.309876   x
            x  Ni               17         0.055470   0.190496   0.684866   x
            x  Ni               18         0.056109   0.313863   0.559715   x
            x  Ni               19         0.058168   0.436966   0.685802   x
            x  Ni               20         0.056973   0.564195   0.559372   x
            x  Ni               21         0.060294   0.688890   0.684848   x
            x  Ni               22         0.053542   0.815278   0.559658   x
            x  Ni               23         0.055897   0.940746   0.685630   x
            x  Ni               24         0.054896   0.064997   0.560528   x
            x  Ni               25         0.057396   0.189396   0.936995   x
            x  Ni               26         0.056351   0.312066   0.811549   x
            x  Ni               27         0.060447   0.437627   0.937297   x
            x  Ni               28         0.067186   0.562684   0.811656   x
            x  Ni               29         0.060444   0.688291   0.935686   x
            x  Ni               30         0.056799   0.815370   0.810365   x
            x  Ni               31         0.058285   0.940598   0.935056   x
            x  Ni               32         0.056334   0.066567   0.810320   x
            x  Ni               33         0.183216   0.313326   0.187095   x
            x  Ni               34         0.306517   0.189501   0.187073   x
            x  Ni               35         0.307832   0.313174   0.062160   x
            x  Ni               36         0.181500   0.189741   0.061540   x
            x  Ni               37         0.432195   0.315180   0.185599   x
            x  Ni               38         0.553106   0.183376   0.184571   x
            x  Ni               39         0.557386   0.313103   0.059534   x
            x  Ni               40         0.430531   0.186532   0.062088   x
            x  Ni               41         0.680723   0.310069   0.184607   x
            x  Ni               42         0.808010   0.184484   0.184013   x
            x  Ni               43         0.679451   0.185896   0.060117   x
            x  Ni               44         0.933712   0.312780   0.186255   x
            x  Ni               45         0.933217   0.567763   0.185262   x
            x  Ni               46         0.937220   0.188148   0.061789   x
            x  Ni               47         0.183345   0.563174   0.188320   x
            x  Ni               48         0.307813   0.438638   0.189640   x
            x  Ni               49         0.308627   0.564409   0.065473   x
            x  Ni               50         0.182500   0.437373   0.064087   x
            x  Ni               51         0.435259   0.561752   0.192869   x
            x  Ni               52         0.682378   0.442421   0.061347   x
            x  Ni               53         0.433133   0.440924   0.063929   x
            x  Ni               54         0.682455   0.567325   0.186361   x
            x  Ni               55         0.933125   0.690078   0.311472   x
            x  Ni               56         0.809166   0.564125   0.059475   x
            x  Ni               57         0.181394   0.812500   0.188239   x
            x  Ni               58         0.305970   0.687112   0.190616   x
            x  Ni               59         0.179118   0.687237   0.063337   x
            x  Ni               60         0.557810   0.694810   0.187544   x
            x  Ni               61         0.429814   0.690517   0.062205   x
            x  Ni               62         0.683214   0.813094   0.184110   x
            x  Ni               63         0.934755   0.688352   0.059523   x
            x  Ni               64         0.808271   0.814357   0.056606   x
            x  Ni               65         0.932256   0.815280   0.184096   x
            x  Ni               66         0.183176   0.064324   0.186968   x
            x  Ni               67         0.301414   0.935956   0.184890   x
            x  Ni               68         0.303000   0.063503   0.059271   x
            x  Ni               69         0.178978   0.939050   0.060229   x
            x  Ni               70         0.427102   0.934085   0.058509   x
            x  Ni               71         0.555065   0.934333   0.180972   x
            x  Ni               72         0.427080   0.814315   0.937143   x
            x  Ni               73         0.555348   0.937454   0.936061   x
            x  Ni               74         0.682011   0.059235   0.183323   x
            x  Ni               75         0.934547   0.940517   0.059853   x
            x  Ni               76         0.683623   0.937696   0.056413   x
            x  Ni               77         0.932935   0.060070   0.183903   x
            x  Ni               78         0.810987   0.942151   0.931648   x
            x  Ni               79         0.184085   0.314205   0.437508   x
            x  Ni               80         0.305106   0.313371   0.314666   x
            x  Ni               81         0.181086   0.187764   0.312914   x
            x  Ni               82         0.431279   0.311537   0.437444   x
            x  Ni               83         0.557187   0.185277   0.433183   x
            x  Ni               84         0.558571   0.313052   0.310742   x
            x  Ni               85         0.685548   0.310355   0.432848   x
            x  Ni               86         0.810761   0.185107   0.434731   x
            x  Ni               87         0.679792   0.182491   0.309486   x
            x  Ni               88         0.937246   0.186026   0.309146   x
            x  Ni               89         0.178716   0.564617   0.435454   x
            x  Ni               90         0.307469   0.562152   0.318195   x
            x  Ni               91         0.183549   0.438704   0.313758   x
            x  Ni               92         0.438789   0.566221   0.432066   x
            x  Ni               93         0.560245   0.439004   0.433250   x
            x  Ni               94         0.683699   0.566985   0.437158   x
            x  Ni               95         0.683251   0.438655   0.310099   x
            x  Ni               96         0.807535   0.564770   0.310238   x
            x  Ni               97         0.807738   0.438503   0.186911   x
            x  Ni               98         0.934819   0.560404   0.436550   x
            x  Ni               99         0.180081   0.817295   0.433650   x
            x  Ni              100         0.306041   0.690021   0.436012   x
            x  Ni              101         0.305507   0.814089   0.312855   x
            x  Ni              102         0.179479   0.688752   0.312981   x
            x  Ni              103         0.432546   0.815704   0.434782   x
            x  Ni              104         0.561214   0.694323   0.438064   x
            x  Ni              105         0.433038   0.691626   0.312614   x
            x  Ni              106         0.684291   0.937762   0.311583   x
            x  Ni              107         0.687136   0.694969   0.315888   x
[...]
            Ni 106 -- Ni 116                 0.01        2.59885
            Ni 12  -- Ni 91                  0.09        2.59915
            Ni 134 -- Ni 136                 0.02        2.59920
            Ni 127 -- Ni 169                -0.04        2.59974
            Ni 106 -- Ni 114                -0.05        2.59991
             Al 8  -- Ni 70                  0.17        2.60014
             Al 57 -- Ni 52                  0.18        2.60017
            Ni 42  -- Ni 44                  0.01        2.60021
            Ni 53  -- Ni 173                 0.10        2.60022
             Al 17 -- Ni 27                  0.16        2.60048
             Al 40 -- Ni 121                 0.17        2.60048
            Ni 27  -- Ni 159                 0.09        2.60049
            Ni 144 -- Ni 180                 0.03        2.60089
            Ni 70  -- Ni 166                 0.08        2.60104
            Ni 145 -- Ni 156                 0.04        2.60111
             Al 22 -- Ni 146                 0.16        2.60113
             Al 44 -- Ni 10                  0.18        2.60125
             Al 54 -- Ni 71                  0.20        2.60132
            Ni 181 -- Ni 192                 0.07        2.60160
            Ni 154 -- Ni 169                 0.04        2.60168
             Al 53 -- Ni 54                  0.21        2.60169
            Ni 4   -- Ni 50                  0.04        2.60174
            Ni 145 -- Ni 147                 0.01        2.60231
             Al 24 -- Ni 20                  0.17        2.60286
            Ni 131 -- Ni 145                -0.03        2.60290
            Ni 144 -- Ni 179                 0.04        2.60302
            Ni 29  -- Ni 189                 0.05        2.60315
            Ni 39  -- Ni 185                 0.09        2.60323
            Ni 163 -- Ni 176                 0.09        2.60332
            Ni 168 -- Ni 170                 0.03        2.60337
            Ni 72  -- Ni 184                 0.06        2.60356
            Ni 92  -- Ni 100                 0.04        2.60361
            Ni 98  -- Ni 136                 0.02        2.60399
            Ni 130 -- Ni 134                 0.07        2.60463
            Ni 86  -- Ni 127                -0.01        2.60465
            Ni 37  -- Ni 38                  0.05        2.60468
            Ni 25  -- Ni 172                 0.01        2.60469
            Ni 9   -- Ni 127                 0.04        2.60474
            Ni 134 -- Ni 144                 0.00        2.60480
            Ni 21  -- Ni 146                 0.09        2.60504
            Ni 83  -- Ni 85                  0.07        2.60515
            Ni 60  -- Ni 107                 0.05        2.60527
            Ni 141 -- Ni 143                 0.08        2.60530
            Ni 54  -- Ni 56                  0.11        2.60535
            Ni 82  -- Ni 93                  0.08        2.60535
             Al 23 -- Ni 142                 0.17        2.60573
             Al 31 -- Ni 4                   0.16        2.60575
             Al 12 -- Ni 175                 0.18        2.60575
            Ni 94  -- Ni 96                  0.01        2.60582
            Ni 131 -- Ni 143                 0.04        2.60598
            Ni 140 -- Ni 184                -0.03        2.60640
             Al 59 -- Ni 178                 0.18        2.60641
             Al 60 -- Ni 51                  0.19        2.60666
             Al 57 -- Ni 44                  0.18        2.60686
            Ni 169 -- Ni 170                 0.02        2.60693
             Al 42 -- Ni 107                 0.18        2.60695
            Ni 165 -- Ni 180                -0.00        2.60718
            Ni 26  -- Ni 27                  0.04        2.60767
             Al 35 -- Ni 120                 0.17        2.60771
            Ni 55  -- Ni 98                  0.05        2.60776
             Al 11 -- Ni 52                  0.15        2.60783
            Ni 96  -- Ni 98                 -0.06        2.60789
             Al 20 -- Ni 192                 0.16        2.60789
             Al 19 -- Ni 154                 0.17        2.60792
            Ni 86  -- Ni 87                  0.06        2.60845
             Al 46 -- Ni 93                  0.18        2.60859
            Ni 173 -- Ni 174                 0.00        2.60907
             Al 9  -- Ni 195                 0.17        2.60926
             Al 41 -- Ni 104                 0.16        2.60967
            Ni 71  -- Ni 106                 0.02        2.60969
             Al 39 -- Ni 83                  0.14        2.60971
            Ni 179 -- Ni 187                 0.06        2.61015
             Al 15 -- Ni 175                 0.20        2.61070
             Al 38 -- Ni 152                 0.16        2.61083
            Ni 69  -- Ni 190                 0.05        2.61092
            Ni 134 -- Ni 165                -0.04        2.61095
             Al 41 -- Ni 109                 0.17        2.61121
            Ni 167 -- Ni 168                 0.05        2.61144
             Al 14 -- Ni 171                 0.17        2.61165
            Ni 73  -- Ni 193                 0.05        2.61195
             Al 14 -- Ni 168                 0.16        2.61211
            Ni 175 -- Ni 177                 0.04        2.61247
            Ni 98  -- Ni 135                 0.08        2.61267
             Al 28 -- Ni 130                 0.15        2.61274
            Ni 122 -- Ni 132                 0.04        2.61281
            Ni 99  -- Ni 100                 0.07        2.61292
             Al 31 -- Ni 178                 0.21        2.61314
            Ni 141 -- Ni 156                 0.05        2.61341
            Ni 160 -- Ni 191                 0.11        2.61370
            Ni 141 -- Ni 142                 0.07        2.61401
             Al 20 -- Ni 191                 0.16        2.61413
             Al 50 -- Al 51                  0.23        2.61417
             Al 26 -- Ni 171                 0.17        2.61419
            Ni 128 -- Ni 161                 0.09        2.61433
            Ni 42  -- Ni 43                 -0.00        2.61454
            Ni 21  -- Ni 28                 -0.01        2.61491
            Ni 61  -- Ni 175                 0.02        2.61497
             Al 50 -- Ni 113                 0.15        2.61527
             Al 25 -- Ni 179                 0.18        2.61534
             Al 32 -- Ni 85                  0.21        2.61555
             Al 31 -- Ni 56                  0.16        2.61575
             Al 3  -- Ni 195                 0.15        2.61588
             Al 7  -- Ni 40                  0.16        2.61596
            Ni 6   -- Ni 75                  0.08        2.61631
            Ni 54  -- Ni 60                  0.06        2.61632
            Ni 15  -- Ni 16                  0.00        2.61637
             Al 57 -- Ni 46                  0.18        2.61646
             Al 9  -- Ni 187                 0.18        2.61651
            Ni 19  -- Ni 20                  0.02        2.61694
            Ni 37  -- Ni 84                 -0.02        2.61728
            Ni 75  -- Ni 78                  0.04        2.61745
             Al 56 -- Ni 72                  0.17        2.61772
            Ni 67  -- Ni 111                 0.10        2.61857
            Ni 152 -- Ni 154                 0.05        2.61871
            Ni 49  -- Ni 51                  0.14        2.61875
            Ni 51  -- Ni 60                  0.01        2.61893
            Ni 143 -- Ni 188                 0.02        2.61894
            Ni 138 -- Ni 174                -0.03        2.61908
            Ni 86  -- Ni 126                 0.03        2.61949
            Ni 41  -- Ni 42                  0.02        2.61981
            Ni 93  -- Ni 130                 0.09        2.62013
             Al 42 -- Ni 109                 0.17        2.62033
             Al 42 -- Ni 145                 0.16        2.62078
            Ni 157 -- Ni 169                 0.00        2.62099
            Ni 167 -- Ni 178                 0.05        2.62100
            Ni 85  -- Ni 126                 0.04        2.62103
            Ni 41  -- Ni 95                  0.03        2.62168
            Ni 51  -- Ni 58                  0.10        2.62172
             Al 40 -- Ni 81                  0.16        2.62211
             Al 54 -- Ni 70                  0.17        2.62246
            Ni 167 -- Ni 185                 0.07        2.62274
            Ni 62  -- Ni 109                 0.04        2.62279
            Ni 159 -- Ni 161                 0.05        2.62299
            Ni 29  -- Ni 30                  0.02        2.62309
             Al 52 -- Ni 77                  0.16        2.62322
            Ni 98  -- Ni 147                 0.06        2.62360
            Ni 38  -- Ni 84                  0.07        2.62370
             Al 56 -- Ni 70                  0.17        2.62387
             Al 35 -- Ni 125                 0.15        2.62427
             Al 43 -- Al 55                  0.28        2.62455
            Ni 94  -- Ni 95                  0.02        2.62518
            Ni 73  -- Ni 184                 0.07        2.62529
            Ni 119 -- Ni 129                 0.04        2.62558
            Ni 138 -- Ni 140                 0.09        2.62580
             Al 38 -- Al 39                  0.26        2.62636
            Ni 19  -- Ni 28                 -0.00        2.62642
            Ni 68  -- Ni 70                  0.04        2.62662
             Al 6  -- Ni 133                 0.18        2.62665
             Al 8  -- Ni 72                  0.14        2.62698
             Al 5  -- Ni 191                 0.16        2.62723
            Ni 67  -- Ni 68                  0.03        2.62726
            Ni 174 -- Ni 176                 0.09        2.62758
            Ni 44  -- Ni 97                 -0.11        2.62847
            Ni 126 -- Ni 169                 0.02        2.62857
             Al 52 -- Ni 75                  0.16        2.62881
            Ni 176 -- Ni 185                 0.03        2.62987
             Al 6  -- Ni 175                 0.14        2.63022
            Ni 71  -- Ni 115                -0.06        2.63029
            Ni 38  -- Ni 39                  0.10        2.63045
            Ni 131 -- Ni 141                 0.01        2.63060
            Ni 143 -- Ni 184                 0.01        2.63077
             Al 37 -- Ni 77                  0.14        2.63155
            Ni 11  -- Ni 135                 0.08        2.63167
            Ni 49  -- Ni 173                 0.01        2.63172
            Ni 60  -- Ni 177                 0.01        2.63196
             Al 26 -- Ni 135                 0.18        2.63311
             Al 35 -- Ni 121                 0.14        2.63376
             Al 41 -- Ni 107                 0.16        2.63390
            Ni 114 -- Ni 156                 0.01        2.63403
            Ni 126 -- Ni 165                 0.04        2.63407
            Ni 133 -- Ni 188                 0.04        2.63439
            Ni 39  -- Ni 52                  0.05        2.63525
            Ni 52  -- Ni 178                 0.06        2.63594
            Ni 20  -- Ni 21                 -0.04        2.63662
             Al 33 -- Ni 135                 0.13        2.63892
            Ni 27  -- Ni 171                 0.07        2.63899
            Ni 41  -- Ni 97                  0.01        2.63928
             Al 55 -- Al 56                  0.25        2.63936
            Ni 122 -- Ni 128                 0.10        2.64024
            Ni 3   -- Ni 44                  0.00        2.64091
             Al 19 -- Ni 86                  0.16        2.64214
             Al 60 -- Ni 54                  0.16        2.64223
             Al 25 -- Ni 136                 0.15        2.64311
            Ni 59  -- Ni 181                 0.04        2.64321
            Ni 151 -- Ni 193                -0.01        2.64422
             Al 10 -- Al 22                  0.23        2.64505
             Al 35 -- Al 51                  0.27        2.64667
             Al 41 -- Al 43                  0.24        2.64767
             Al 50 -- Ni 111                 0.15        2.64792
            Ni 179 -- Ni 180                 0.06        2.64978
            Ni 19  -- Ni 135                 0.09        2.65004
            Ni 163 -- Ni 185                 0.08        2.65047
            Ni 94  -- Ni 136                 0.05        2.65116
             Al 58 -- Ni 171                 0.13        2.65160
            Ni 80  -- Ni 82                  0.06        2.65213
             Al 12 -- Ni 133                 0.15        2.65364
             Al 4  -- Ni 71                  0.14        2.65419
             Al 58 -- Ni 172                 0.14        2.65477
             Al 9  -- Ni 189                 0.17        2.65589
            Ni 41  -- Ni 52                  0.04        2.65643
            Ni 128 -- Ni 132                 0.00        2.65762
            Ni 72  -- Ni 175                 0.04        2.65776
            Ni 45  -- Ni 97                  0.02        2.65833
             Al 22 -- Ni 189                 0.14        2.65860
             Al 4  -- Ni 38                  0.16        2.65879
             Al 45 -- Ni 51                  0.15        2.65981
            Ni 175 -- Ni 186                 0.05        2.66138
             Al 7  -- Ni 70                  0.16        2.66174
            Ni 54  -- Ni 107                 0.04        2.66442
             Al 31 -- Ni 171                 0.18        2.66490
             Al 27 -- Ni 176                 0.12        2.66556
             Al 25 -- Ni 135                 0.16        2.66672
             Al 2  -- Ni 155                 0.13        2.66812
             Al 16 -- Ni 165                 0.16        2.66843
             Al 2  -- Ni 78                  0.14        2.66884
             Al 9  -- Ni 78                  0.16        2.66962
             Al 6  -- Ni 174                 0.16        2.67005
             Al 47 -- Ni 128                 0.17        2.67029
            Ni 151 -- Ni 184                -0.00        2.67086
            Ni 182 -- Ni 183                 0.03        2.67285
             Al 1  -- Ni 78                  0.14        2.67291
            Ni 133 -- Ni 185                 0.08        2.67355
             Al 20 -- Al 21                  0.23        2.67486
             Al 15 -- Ni 178                 0.18        2.67545
             Al 40 -- Al 51                  0.22        2.67690
            Ni 51  -- Ni 61                  0.06        2.67788
             Al 12 -- Ni 61                  0.14        2.67805
             Al 1  -- Ni 168                 0.14        2.68095
             Al 45 -- Ni 37                  0.13        2.68147
             Al 19 -- Al 38                  0.24        2.68237
             Al 45 -- Ni 84                  0.14        2.68517
             Al 11 -- Al 60                  0.21        2.68556
             Al 37 -- Al 52                  0.22        2.68604
             Al 9  -- Al 10                  0.23        2.68720
            Ni 3   -- Ni 45                 -0.00        2.69166
            Ni 133 -- Ni 180                 0.07        2.69301
             Al 8  -- Al 56                  0.21        2.69341
            Ni 28  -- Ni 189                 0.09        2.69387
            Ni 20  -- Ni 135                 0.09        2.70096
             Al 27 -- Al 28                  0.19        2.70333
             Al 6  -- Al 12                  0.23        2.70401
             Al 1  -- Al 52                  0.22        2.70954
             Al 36 -- Al 37                  0.22        2.71087
             Al 2  -- Al 10                  0.21        2.71442
             Al 4  -- Al 7                   0.21        2.71538
             Al 26 -- Al 58                  0.23        2.71999
             Al 4  -- Al 39                  0.22        2.72094
             Al 17 -- Al 29                  0.21        2.72233
            Ni 178 -- Ni 180                 0.07        2.72464
             Al 11 -- Al 12                  0.20        2.72570
             Al 1  -- Al 3                   0.22        2.72785
             Al 16 -- Al 27                  0.21        2.72788
             Al 24 -- Al 29                  0.22        2.72790
             Al 5  -- Al 20                  0.20        2.73064
            Ni 138 -- Ni 183                 0.04        2.73065
             Al 28 -- Al 47                  0.18        2.73402
             Al 5  -- Al 8                   0.20        2.73449
             Al 14 -- Al 58                  0.20        2.73672
             Al 39 -- Al 50                  0.18        2.74176
             Al 2  -- Al 3                   0.20        2.74189
             Al 41 -- Al 42                  0.20        2.74451
             Al 6  -- Al 28                  0.20        2.74911
            Ni 28  -- Ni 171                 0.08        2.74917
            Ni 178 -- Ni 179                 0.07        2.75413
             Al 4  -- Al 50                  0.18        2.76255
             Al 25 -- Al 26                  0.18        2.76490
             Al 22 -- Al 25                  0.19        2.76636
             Al 47 -- Ni 142                 0.11        2.76684
             Al 26 -- Al 33                  0.19        2.76954
             Al 31 -- Al 59                  0.19        2.76994
             Al 15 -- Ni 133                 0.12        2.77642
             Al 11 -- Al 15                  0.18        2.78121
             Al 32 -- Al 33                  0.18        2.78490
             Al 54 -- Al 55                  0.18        2.78524
             Al 57 -- Al 59                  0.17        2.78889
             Al 17 -- Al 18                  0.18        2.78976
             Al 13 -- Al 29                  0.16        2.79068
             Al 33 -- Al 48                  0.18        2.79384
             Al 13 -- Al 18                  0.17        2.79414
             Al 14 -- Al 59                  0.17        2.80341
             Al 16 -- Al 34                  0.17        2.80760
             Al 46 -- Al 60                  0.19        2.81011
             Al 30 -- Al 33                  0.16        2.81297
             Al 6  -- Al 23                  0.16        2.81545
             Al 14 -- Al 57                  0.15        2.83426
             Al 23 -- Al 28                  0.14        2.83988
             Al 32 -- Al 44                  0.17        2.84631
             Al 44 -- Al 48                  0.16        2.84915
             Al 30 -- Al 58                  0.16        2.85203
             Al 29 -- Al 47                  0.11        2.87093
             Al 48 -- Al 49                  0.16        2.88547
             Al 32 -- Al 49                  0.16        2.89558
             Al 45 -- Al 60                  0.12        2.90068
             Al 44 -- Al 49                  0.13        2.90269
             Al 26 -- Al 30                  0.11        2.90829
             Al 45 -- Al 46                  0.10        2.94525
             Al 24 -- Al 47                  0.09        2.96252
             Al 32 -- Al 48                  0.10        2.99690
======================================================================
 

Writing analysis data to castep.castep_bin

Writing model to castep.check
 
 A BibTeX formatted list of references used in this run has been written to 
 castep.bib
 
Initialisation time =     17.13 s
Calculation time    =  31906.44 s
Finalisation time   =     18.96 s
Total time          =  31942.53 s
Peak Memory Use     = 2257884 kB
  
Overall parallel efficiency rating: Good (75%)                                  
  
Data was distributed by:-
G-vector (28-way); efficiency rating: Good (75%)                                
