 +-------------------------------------------------+
 |                                                 |
 |      CCC   AA    SSS  TTTTT  EEEEE  PPPP        |
 |     C     A  A  S       T    E      P   P       |
 |     C     AAAA   SS     T    EEE    PPPP        |
 |     C     A  A     S    T    E      P           |
 |      CCC  A  A  SSS     T    EEEEE  P           |
 |                                                 |
 +-------------------------------------------------+
 |                                                 |
 | Welcome to Academic Release CASTEP version 20.11|          
 | Ab Initio Total Energy Program                  |
 |                                                 |
 | Authors:                                        |
 | M. Segall, M. Probert, C. Pickard, P. Hasnip,   |
 | S. Clark, K. Refson, J. R. Yates, M. Payne      |
 |                                                 |
 | Contributors:                                   |
 | P. Lindan, P. Haynes, J. White, V. Milman,      |
 | N. Govind, M. Gibson, P. Tulip, V. Cocula,      |
 | B. Montanari, D. Quigley, M. Glover,            |
 | L. Bernasconi, A. Perlov, M. Plummer,           |
 | E. McNellis, J. Meyer, J. Gale, D. Jochym       |
 | J. Aarons, B. Walker, R. Gillen, D. Jones       |
 | T. Green, I. J. Bush, C. J. Armstrong,          |
 | E. J. Higgins, E. L. Brown, M. S. McFly,        |
 | J. Wilkins, B-C. Shih, P. J. P. Byrne,          |
 | R. J. Maurer, J. C. Womack, J. Dziedzic,        |
 | J. R. Kermode, A. Bartok-Partay                 |
 |                                                 |
 | Copyright (c) 2000 - 2020                       |
 |                                                 |
 |     Distributed under license from Cambridge    |
 |     Enterprise for academic use only.           |
 |                                                 |
 | Please cite                                     |
 |                                                 |
 |     "First principles methods using CASTEP"     |
 |                                                 |
 |         Zeitschrift fuer Kristallographie       |
 |           220(5-6) pp. 567-570 (2005)           |
 |                                                 |
 | S. J. Clark, M. D. Segall, C. J. Pickard,       |
 | P. J. Hasnip, M. J. Probert, K. Refson,         |
 | M. C. Payne                                     |
 |                                                 |
 |       in all publications arising from          |
 |              your use of CASTEP                 |
 |                                                 |
 +-------------------------------------------------+
 |                                                 |
 |              http://www.castep.org              |
 |                                                 |
 +-------------------------------------------------+
 
 
 
 Compiled for linux_x86_64_ifort on Wed, 25 Aug 2021 18:50:38 +0100
 from code version e772bf432+  HEAD  Sat Apr 3 17:41:32 2021 +0100
 Compiler: Intel Fortran 19.0.5.281; Optimisation: fast
 MATHLIBS: Intel MKL(2019.0.5) (LAPACK version 3.7.0)
 FFT Lib : mkl
 Fundamental constants values: CODATA 2014
 
 Run started: Wed, 08 Mar 2023 10:12:46 +0000
 
 Atomic calculation performed for Al: 1s2 2s2 2p6 3s2 3p1
 
 Converged in 52 iterations to an ae energy of -6606.982 eV
 
   ============================================================                
   | Pseudopotential Report - Date of generation  8-03-2023   |                
   ------------------------------------------------------------                
   | Element: Al Ionic charge:  3.00 Level of theory: RPBE    |                
   | Atomic Solver: Koelling-Harmon                           |                
   |                                                          |                
   |               Reference Electronic Structure             |                
   |         Orbital         Occupation         Energy        |                
   |            3s              2.000           -0.284        |                
   |            3p              1.000           -0.100        |                
   |                                                          |                
   |                 Pseudopotential Definition               |                
   |        Beta     l      e      Rc     scheme   norm       |                
   |          1      0   -0.284   2.192     qc      0         |                
   |          2      0    0.250   2.192     qc      0         |                
   |          3      1   -0.100   2.192     qc      0         |                
   |          4      1    0.250   2.192     qc      0         |                
   |          5      2    0.000   2.000     qc      0         |                
   |          6      2    0.250   2.000     qc      0         |                
   |         loc     3    0.000   2.192     pn      0         |                
   |                                                          |                
   | Augmentation charge Rinner = 1.398                       |                
   | Partial core correction Rc = 1.398                       |                
   ------------------------------------------------------------                
   | "3|2.2|2.2|1.4|4|5|5|30:31:32U2U2"                       |                
   ------------------------------------------------------------                
   |      Author: Chris J. Pickard, Cambridge University      |                
   ============================================================                
 
 Atomic calculation performed for Ni: 1s2 2s2 2p6 3s2 3p6 3d8 4s2
 
 Converged in 109 iterations to an ae energy of -41381.414 eV
 
   ============================================================                
   | Pseudopotential Report - Date of generation  8-03-2023   |                
   ------------------------------------------------------------                
   | Element: Ni Ionic charge: 10.00 Level of theory: RPBE    |                
   | Atomic Solver: Koelling-Harmon                           |                
   |                                                          |                
   |               Reference Electronic Structure             |                
   |         Orbital         Occupation         Energy        |                
   |            3d              8.000           -0.324        |                
   |            4s              2.000           -0.204        |                
   |                                                          |                
   |                 Pseudopotential Definition               |                
   |        Beta     l      e      Rc     scheme   norm       |                
   |          1      0   -0.204   2.401     qc      0         |                
   |          2      0    0.250   2.401     qc      0         |                
   |          3      1    0.000   2.401     qc      0         |                
   |          4      1    0.250   2.401     qc      0         |                
   |          5      2   -0.324   1.999     qc      0         |                
   |          6      2    0.250   1.999     qc      0         |                
   |         loc     3    0.000   2.401     pn      0         |                
   |                                                          |                
   | Augmentation charge Rinner = 1.001                       |                
   | Partial core correction Rc = 1.001                       |                
   ------------------------------------------------------------                
   | "3|2.4|2.4|1.0|8|9|10|40:41:32U2U2(qc=5.5)"              |                
   ------------------------------------------------------------                
   |      Author: Chris J. Pickard, Cambridge University      |                
   ============================================================                
 
 Pseudo atomic calculation performed for Al 3s2 3p1
 
 Converged in 13 iterations to a total energy of -107.6592 eV
 
 Pseudo atomic calculation performed for Ni 3d8 4s2
 
 Converged in 41 iterations to a total energy of -1369.7891 eV
 Calculation parallelised over 48 processes.
 Data is distributed by G-vector(48-way)

 ************************************ Title ************************************
 

 ***************************** General Parameters ******************************
  
 output verbosity                               : normal  (1)
 write checkpoint data to                       : castep.check
 type of calculation                            : geometry optimization
 stress calculation                             : off
 density difference calculation                 : off
 electron localisation func (ELF) calculation   : off
 Hirshfeld analysis                             : off
 molecular orbital projected DOS                : off
 deltaSCF calculation                           : off
 unlimited duration calculation
 timing information                             : on
 memory usage estimate                          : on
 write extra output files                       : on
 write final potential to formatted file        : off
 write final density to formatted file          : off
 write BibTeX reference list                    : on
 write OTFG pseudopotential files               : on
 write electrostatic potential file             : on
 write bands file                               : on
 checkpoint writing                             : both castep_bin and check files
  
 output         length unit                     : A
 output           mass unit                     : amu
 output           time unit                     : ps
 output         charge unit                     : e
 output           spin unit                     : hbar/2
 output         energy unit                     : eV
 output          force unit                     : eV/A
 output       velocity unit                     : A/ps
 output       pressure unit                     : GPa
 output     inv_length unit                     : 1/A
 output      frequency unit                     : cm-1
 output force constant unit                     : eV/A**2
 output         volume unit                     : A**3
 output   IR intensity unit                     : (D/A)**2/amu
 output         dipole unit                     : D
 output         efield unit                     : eV/A/e
 output        entropy unit                     : J/mol/K
 output    efield chi2 unit                     : pm/V
  
 wavefunctions paging                           : none
 random number generator seed                   : randomised (101246816)
 data distribution                              : optimal for this architecture
 optimization strategy                          : maximize speed(+++)

 *********************** Exchange-Correlation Parameters ***********************
  
 using functional                               : revised Perdew Burke Ernzerhof
 relativistic treatment                         : Koelling-Harmon
 DFT+D: Semi-empirical dispersion correction    : off

 ************************* Pseudopotential Parameters **************************
  
 pseudopotential representation                 : reciprocal space
 <beta|phi> representation                      : reciprocal space
 spin-orbit coupling                            : off

 **************************** Basis Set Parameters *****************************
  
 plane wave basis set cut-off                   :   900.0000   eV
 size of standard grid                          :     1.7500
 size of   fine   gmax                          :    26.8966   1/A
 finite basis set correction                    : none

 **************************** Electronic Parameters ****************************
  
 number of  electrons                           :  2109.    
 net charge of system                           :  0.000    
 net spin   of system                           :  1.000    
 number of  up  spins                           :  1055.    
 number of down spins                           :  1054.    
 treating system as spin-polarized
 number of bands                                :       1167

 ********************* Electronic Minimization Parameters **********************
  
 Method: Treating system as metallic with density mixing treatment of electrons,
         and number of  SD  steps               :          1
         and number of  CG  steps               :          4
  
 total energy / atom convergence tol.           : 0.1000E-05   eV
 eigen-energy convergence tolerance             : 0.2185E-06   eV
 max force / atom convergence tol.              : ignored
 convergence tolerance window                   :          3   cycles
 max. number of SCF cycles                      :        200
 number of fixed-spin iterations                :         10
 smearing scheme                                : Gaussian
 smearing width                                 : 0.2000       eV
 Fermi energy convergence tolerance             : 0.2721E-13   eV
 periodic dipole correction                     : NONE
 periodically dump wavefunctions to             : castep.wvfn
 dump wavefunctions every                       :          1   SCF cycles

 ************************** Density Mixing Parameters **************************
  
 density-mixing scheme                          : Pulay
 max. length of mixing history                  :         20
 charge density mixing amplitude                : 0.8000    
   spin density mixing amplitude                :  2.000    
 cut-off energy for mixing                      :  900.0       eV

 *********************** Population Analysis Parameters ************************
  
 Population analysis with cutoff                :  3.000       A
 Population analysis output                     : summary and pdos components

 ********************** Geometry Optimization Parameters ***********************
  
 optimization method                            : LBFGS
 max. no. of LBFGS updates                      : unbounded
 variable cell method                           : fixed basis quality
 max. number of steps                           :         30
 estimated bulk modulus                         :  500.0       GPa
 estimated <frequency>                          :  1668.       cm-1
 geom line minimiser                            : on
 with line minimiser tolerance                  :     0.4000
  with spin fully able to relax for all steps
 total energy convergence tolerance             : 0.2000E-04   eV/atom
        max ionic |force| tolerance             : 0.5000E-01   eV/A
 max ionic |displacement| tolerance             : 0.1000E-02   A
   max |stress component| tolerance             : 0.1000       GPa
 convergence tolerance window                   :          2   steps
 backup results every                           :          5   steps
 write geom trajectory file                     : on

 *******************************************************************************
  
 
                           -------------------------------
                                      Unit Cell
                           -------------------------------
        Real Lattice(A)                      Reciprocal Lattice(1/A)
    14.4648280     0.0000000     0.0000000        0.434376773   0.000000000   0.000000000
     0.0000000    14.4648280     0.0000000        0.000000000   0.434376773   0.000000000
     0.0000000     0.0000000    14.4648280        0.000000000   0.000000000   0.434376773
 
                       Lattice parameters(A)       Cell Angles
                    a =     14.464828          alpha =   90.000000
                    b =     14.464828          beta  =   90.000000
                    c =     14.464828          gamma =   90.000000
 
                       Current cell volume =          3026.494030       A**3
                                   density =             4.285146   AMU/A**3
                                           =             7.115653     g/cm^3
 
                           -------------------------------
                                     Cell Contents
                           -------------------------------
                         Total number of ions in cell =  255
                      Total number of species in cell =    2
                        Max number of any one species =  192
 
            xxxxxxxxxxxxxxxxxxxxxxxxxxxxxxxxxxxxxxxxxxxxxxxxxxxxxxxxxxxx
            x  Element    Atom        Fractional coordinates of atoms  x
            x            Number           u          v          w      x
            x----------------------------------------------------------x
            x  Al           1         0.570704   0.307410   0.814002   x 
            x  Al           2         0.818250   0.309206   0.812754   x 
            x  Al           3         0.569893   0.559264   0.815373   x 
            x  Al           4         0.817597   0.558239   0.813193   x 
            x  Al           5         0.575320   0.809635   0.809875   x 
            x  Al           6         0.819100   0.807798   0.812322   x 
            x  Al           7         0.572255   0.058443   0.813002   x 
            x  Al           8         0.819968   0.059143   0.811974   x 
            x  Al           9         0.569620   0.305952   0.062215   x 
            x  Al          10         0.817812   0.308656   0.063475   x 
            x  Al          11         0.573358   0.554873   0.061424   x 
            x  Al          12         0.816696   0.558097   0.063514   x 
            x  Al          13         0.577340   0.814381   0.062682   x 
            x  Al          14         0.819191   0.808324   0.063095   x 
            x  Al          15         0.574364   0.057118   0.058912   x 
            x  Al          16         0.819967   0.058968   0.062902   x 
            x  Al          17         0.570279   0.306340   0.311665   x 
            x  Al          18         0.817078   0.309541   0.312893   x 
            x  Al          19         0.567343   0.559708   0.311045   x 
            x  Al          20         0.816092   0.558295   0.312631   x 
            x  Al          21         0.574653   0.809399   0.315776   x 
            x  Al          22         0.818573   0.807345   0.313563   x 
            x  Al          23         0.577144   0.057428   0.318815   x 
            x  Al          24         0.819624   0.058861   0.313715   x 
            x  Al          25         0.571642   0.308637   0.563531   x 
            x  Al          26         0.817119   0.310220   0.562758   x 
            x  Al          27         0.568936   0.558945   0.564412   x 
            x  Al          28         0.816565   0.557893   0.562590   x 
            x  Al          29         0.570705   0.808496   0.564012   x 
            x  Al          30         0.819226   0.807160   0.563076   x 
            x  Al          31         0.572559   0.057944   0.562640   x 
            x  Al          32         0.820035   0.059089   0.563512   x 
            x  Al          33         0.328672   0.182470   0.683944   x 
            x  Al          34         0.056306   0.057826   0.557580   x 
            x  Al          35         0.192986   0.190297   0.554624   x 
            x  Al          36         0.321481   0.935457   0.689204   x 
            x  Al          37         0.192694   0.929548   0.554584   x 
            x  Al          38         0.318583   0.689961   0.693805   x 
            x  Al          39         0.074767   0.687566   0.679130   x 
            x  Al          40         0.198680   0.188672   0.322247   x 
            x  Al          41         0.067337   0.805444   0.315466   x 
            x  Al          42         0.326111   0.684968   0.438498   x 
            x  Al          43         0.194389   0.667445   0.313202   x 
            x  Al          44         0.337219   0.428725   0.430344   x 
            x  Al          45         0.328535   0.555019   0.569530   x 
            x  Al          46         0.192233   0.432832   0.306419   x 
            x  Al          47         0.063830   0.435378   0.438063   x 
            x  Al          48         0.317530   0.060388   0.061872   x 
            x  Al          49         0.440409   0.057066   0.194607   x 
            x  Al          50         0.185872   0.054893   0.935116   x 
            x  Al          51         0.068535   0.185186   0.191376   x 
            x  Al          52         0.433473   0.814672   0.189334   x 
            x  Al          53         0.070961   0.945107   0.191930   x 
            x  Al          54         0.201481   0.808501   0.181719   x 
            x  Al          55         0.432152   0.677788   0.059852   x 
            x  Al          56         0.334541   0.430833   0.188788   x 
            x  Al          57         0.188511   0.425171   0.063042   x 
            x  Al          58         0.187110   0.186341   0.807231   x 
            x  Al          59         0.434361   0.816941   0.935047   x 
            x  Al          60         0.191729   0.811559   0.937430   x 
            x  Al          61         0.191590   0.426146   0.805282   x 
            x  Al          62         0.193533   0.427296   0.570960   x 
            x  Al          63         0.188915   0.565164   0.934066   x 
            x  Ni           1         0.568090   0.431577   0.937409   x 
            x  Ni           2         0.694194   0.307829   0.938153   x 
            x  Ni           3         0.693656   0.433455   0.813678   x 
            x  Ni           4         0.817446   0.433622   0.938628   x 
            x  Ni           5         0.942284   0.309350   0.938037   x 
            x  Ni           6         0.942030   0.434080   0.812845   x 
            x  Ni           7         0.564544   0.687880   0.941088   x 
            x  Ni           8         0.693039   0.558932   0.938120   x 
            x  Ni           9         0.693546   0.683086   0.813969   x 
            x  Ni          10         0.818578   0.683032   0.938121   x 
            x  Ni          11         0.941939   0.558343   0.938233   x 
            x  Ni          12         0.942520   0.682760   0.812728   x 
            x  Ni          13         0.569276   0.932615   0.935580   x 
            x  Ni          14         0.695885   0.808932   0.937000   x 
            x  Ni          15         0.696477   0.934209   0.811710   x 
            x  Ni          16         0.820193   0.933578   0.937131   x 
            x  Ni          17         0.942729   0.807885   0.937687   x 
            x  Ni          18         0.943294   0.933127   0.812283   x 
            x  Ni          19         0.569019   0.182485   0.937276   x 
            x  Ni          20         0.696295   0.058328   0.936465   x 
            x  Ni          21         0.694850   0.183631   0.812465   x 
            x  Ni          22         0.819212   0.183988   0.937603   x 
            x  Ni          23         0.943202   0.058862   0.937524   x 
            x  Ni          24         0.943039   0.184549   0.812509   x 
            x  Ni          25         0.562021   0.432036   0.190804   x 
            x  Ni          26         0.691780   0.307450   0.187564   x 
            x  Ni          27         0.692019   0.431825   0.064120   x 
            x  Ni          28         0.816726   0.433648   0.188262   x 
            x  Ni          29         0.942213   0.309353   0.188371   x 
            x  Ni          30         0.941760   0.433964   0.063367   x 
            x  Ni          31         0.563821   0.688613   0.183091   x 
            x  Ni          32         0.690688   0.558874   0.187667   x 
            x  Ni          33         0.693693   0.683935   0.062809   x 
            x  Ni          34         0.817658   0.682949   0.188177   x 
            x  Ni          35         0.941801   0.558437   0.188241   x 
            x  Ni          36         0.942238   0.682952   0.063241   x 
            x  Ni          37         0.568146   0.934985   0.189946   x 
            x  Ni          38         0.694878   0.809436   0.188652   x 
            x  Ni          39         0.697453   0.934903   0.062688   x 
            x  Ni          40         0.820068   0.933475   0.188604   x 
            x  Ni          41         0.942643   0.807808   0.188413   x 
            x  Ni          42         0.942989   0.933263   0.062985   x 
            x  Ni          43         0.568970   0.177785   0.187808   x 
            x  Ni          44         0.695434   0.057654   0.188497   x 
            x  Ni          45         0.694971   0.182749   0.062704   x 
            x  Ni          46         0.818726   0.183904   0.188198   x 
            x  Ni          47         0.943250   0.058812   0.188472   x 
            x  Ni          48         0.942749   0.184220   0.063092   x 
            x  Ni          49         0.563639   0.433797   0.432825   x 
            x  Ni          50         0.692610   0.309596   0.437735   x 
            x  Ni          51         0.690946   0.433683   0.311875   x 
            x  Ni          52         0.816568   0.434356   0.437469   x 
            x  Ni          53         0.942362   0.309923   0.437897   x 
            x  Ni          54         0.941929   0.434235   0.313044   x 
            x  Ni          55         0.567425   0.684519   0.439124   x 
            x  Ni          56         0.690523   0.558325   0.437359   x 
            x  Ni          57         0.691775   0.682951   0.312033   x 
            x  Ni          58         0.817362   0.682046   0.437735   x 
            x  Ni          59         0.942037   0.558360   0.437733   x 
            x  Ni          60         0.942251   0.682708   0.313175   x 
            x  Ni          61         0.570513   0.932726   0.440244   x 
            x  Ni          62         0.695255   0.807624   0.439484   x 
            x  Ni          63         0.696984   0.933152   0.314375   x 
            x  Ni          64         0.820091   0.932778   0.438922   x 
            x  Ni          65         0.942847   0.807335   0.438128   x 
            x  Ni          66         0.943112   0.933036   0.313583   x 
            x  Ni          67         0.571303   0.182278   0.439185   x 
            x  Ni          68         0.697558   0.058307   0.440094   x 
            x  Ni          69         0.695488   0.183735   0.313335   x 
            x  Ni          70         0.818900   0.185016   0.438516   x 
            x  Ni          71         0.943175   0.058928   0.438293   x 
            x  Ni          72         0.942575   0.184494   0.313337   x 
            x  Ni          73         0.568012   0.433793   0.690691   x 
            x  Ni          74         0.693266   0.308977   0.688393   x 
            x  Ni          75         0.690443   0.434404   0.562160   x 
            x  Ni          76         0.817127   0.434070   0.687518   x 
            x  Ni          77         0.942559   0.309803   0.687457   x 
            x  Ni          78         0.942135   0.434284   0.562562   x 
            x  Ni          79         0.568191   0.684293   0.688859   x 
            x  Ni          80         0.692465   0.558434   0.688826   x 
            x  Ni          81         0.693188   0.682531   0.563296   x 
            x  Ni          82         0.818072   0.682287   0.687962   x 
            x  Ni          83         0.942224   0.558269   0.687663   x 
            x  Ni          84         0.942407   0.682371   0.562742   x 
            x  Ni          85         0.569603   0.934266   0.687074   x 
            x  Ni          86         0.695697   0.808112   0.687122   x 
            x  Ni          87         0.696004   0.933037   0.563643   x 
            x  Ni          88         0.819996   0.933418   0.687442   x 
            x  Ni          89         0.942904   0.807523   0.687626   x 
            x  Ni          90         0.943645   0.933001   0.562948   x 
            x  Ni          91         0.568746   0.182416   0.688038   x 
            x  Ni          92         0.695335   0.058889   0.687500   x 
            x  Ni          93         0.694900   0.184232   0.563689   x 
            x  Ni          94         0.819137   0.184664   0.687659   x 
            x  Ni          95         0.943694   0.058985   0.687468   x 
            x  Ni          96         0.943076   0.184933   0.562795   x 
            x  Ni          97         0.071317   0.430802   0.933919   x 
            x  Ni          98         0.191721   0.305937   0.934619   x 
            x  Ni          99         0.064557   0.305679   0.808628   x 
            x  Ni         100         0.312300   0.432125   0.934947   x 
            x  Ni         101         0.442918   0.305776   0.938027   x 
            x  Ni         102         0.317115   0.557900   0.811777   x 
            x  Ni         103         0.320131   0.304294   0.811448   x 
            x  Ni         104         0.065617   0.560644   0.806464   x 
            x  Ni         105         0.065446   0.687322   0.936655   x 
            x  Ni         106         0.314958   0.684747   0.933461   x 
            x  Ni         107         0.442374   0.558220   0.936707   x 
            x  Ni         108         0.444617   0.686768   0.815739   x 
            x  Ni         109         0.190069   0.686592   0.810797   x 
            x  Ni         110         0.065986   0.934454   0.935742   x 
            x  Ni         111         0.316485   0.813055   0.812321   x 
            x  Ni         112         0.189890   0.936591   0.807726   x 
            x  Ni         113         0.313687   0.938977   0.934987   x 
            x  Ni         114         0.318276   0.811206   0.059658   x 
            x  Ni         115         0.444851   0.936019   0.812020   x 
            x  Ni         116         0.065547   0.181133   0.934142   x 
            x  Ni         117         0.315622   0.061876   0.809530   x 
            x  Ni         118         0.066723   0.058575   0.805866   x 
            x  Ni         119         0.314688   0.179886   0.935733   x 
            x  Ni         120         0.443286   0.057075   0.937461   x 
            x  Ni         121         0.445100   0.181866   0.813431   x 
            x  Ni         122         0.192981   0.061179   0.678175   x 
            x  Ni         123         0.065423   0.430635   0.187720   x 
            x  Ni         124         0.194672   0.307075   0.188927   x 
            x  Ni         125         0.063985   0.304264   0.061888   x 
            x  Ni         126         0.447662   0.303079   0.186225   x 
            x  Ni         127         0.443912   0.432494   0.059342   x 
            x  Ni         128         0.319996   0.306566   0.061703   x 
            x  Ni         129         0.071871   0.683631   0.190033   x 
            x  Ni         130         0.194036   0.552348   0.183867   x 
            x  Ni         131         0.192453   0.682986   0.061111   x 
            x  Ni         132         0.066936   0.557826   0.061330   x 
            x  Ni         133         0.316435   0.680126   0.188004   x 
            x  Ni         134         0.445797   0.560129   0.183877   x 
            x  Ni         135         0.314493   0.552767   0.059168   x 
            x  Ni         136         0.066984   0.060708   0.063438   x 
            x  Ni         137         0.070346   0.813706   0.066450   x 
            x  Ni         138         0.315041   0.937902   0.189787   x 
            x  Ni         139         0.444063   0.936403   0.063781   x 
            x  Ni         140         0.191270   0.937628   0.063139   x 
            x  Ni         141         0.194732   0.063982   0.191064   x 
            x  Ni         142         0.191129   0.184131   0.061118   x 
            x  Ni         143         0.318005   0.182952   0.189302   x 
            x  Ni         144         0.443769   0.178598   0.062819   x 
            x  Ni         145         0.065301   0.309463   0.314430   x 
            x  Ni         146         0.450596   0.305317   0.436544   x 
            x  Ni         147         0.325655   0.310478   0.311239   x 
            x  Ni         148         0.067113   0.678445   0.438451   x 
            x  Ni         149         0.064724   0.555889   0.313976   x 
            x  Ni         150         0.200299   0.547780   0.441544   x 
            x  Ni         151         0.446820   0.560283   0.438077   x 
            x  Ni         152         0.445060   0.685608   0.310206   x 
            x  Ni         153         0.325762   0.552952   0.312499   x 
            x  Ni         154         0.065145   0.931754   0.436094   x 
            x  Ni         155         0.193450   0.802490   0.434198   x 
            x  Ni         156         0.191685   0.933018   0.314965   x 
            x  Ni         157         0.318342   0.931754   0.438200   x 
            x  Ni         158         0.445857   0.809515   0.436529   x 
            x  Ni         159         0.444347   0.933498   0.314861   x 
            x  Ni         160         0.316075   0.806000   0.313350   x 
            x  Ni         161         0.065564   0.186303   0.436453   x 
            x  Ni         162         0.191405   0.059279   0.440842   x 
            x  Ni         163         0.068547   0.062391   0.315854   x 
            x  Ni         164         0.320947   0.186002   0.439821   x 
            x  Ni         165         0.446311   0.057523   0.437187   x 
            x  Ni         166         0.445754   0.181004   0.314111   x 
            x  Ni         167         0.318092   0.059629   0.317554   x 
            x  Ni         168         0.066460   0.431426   0.684557   x 
            x  Ni         169         0.194921   0.302877   0.684816   x 
            x  Ni         170         0.195577   0.318192   0.436801   x 
            x  Ni         171         0.063927   0.309007   0.558211   x 
            x  Ni         172         0.320750   0.431431   0.689010   x 
            x  Ni         173         0.447878   0.307728   0.689052   x 
            x  Ni         174         0.448075   0.432536   0.564200   x 
            x  Ni         175         0.324245   0.309952   0.562131   x 
            x  Ni         176         0.067222   0.810936   0.808138   x 
            x  Ni         177         0.194461   0.558430   0.687349   x 
            x  Ni         178         0.199948   0.680082   0.560113   x 
            x  Ni         179         0.066471   0.557286   0.561960   x 
            x  Ni         180         0.442670   0.431831   0.815452   x 
            x  Ni         181         0.443711   0.684726   0.565899   x 
            x  Ni         182         0.445393   0.559957   0.693286   x 
            x  Ni         183         0.068190   0.932508   0.680095   x 
            x  Ni         184         0.194830   0.811524   0.684249   x 
            x  Ni         185         0.066739   0.807095   0.557598   x 
            x  Ni         186         0.445032   0.810620   0.690321   x 
            x  Ni         187         0.444839   0.933840   0.562607   x 
            x  Ni         188         0.321267   0.809446   0.562896   x 
            x  Ni         189         0.066450   0.183154   0.680204   x 
            x  Ni         190         0.320348   0.057859   0.560927   x 
            x  Ni         191         0.446353   0.057548   0.687453   x 
            x  Ni         192         0.447084   0.182440   0.561490   x 
            xxxxxxxxxxxxxxxxxxxxxxxxxxxxxxxxxxxxxxxxxxxxxxxxxxxxxxxxxxxx
 
 
                         No user defined ionic velocities
 
                           -------------------------------
                                   Details of Species
                           -------------------------------
 
                               Mass of species in AMU
                                    Al   26.9815400
                                    Ni   58.6934000
 
                          Electric Quadrupole Moment (Barn)
                                    Al    0.1466000 Isotope 27
                                    Ni    0.1620000 Isotope 61
 
                          Files used for pseudopotentials:
                                    Al 3|2.2|2.2|1.4|4|5|5|30:31:32U2U2
                                    Ni 3|2.4|2.4|1.0|8|9|10|40:41:32U2U2(qc=5.5)
 
                           -------------------------------
                              k-Points For BZ Sampling
                           -------------------------------
                       MP grid size for SCF calculation is  1  1  1
                            with an offset of   0.000  0.000  0.000
                       Number of kpoints used =             1
 
                           -------------------------------
                               Symmetry and Constraints
                           -------------------------------
 
                      Maximum deviation from symmetry =  0.00000         ANG
 
                      Number of symmetry operations   =           1
                      Number of ionic constraints     =           3
                      Point group of crystal =     1: C1, 1, 1
                      Space group of crystal =     1: P1, P 1
 
             Set iprint > 1 for details on symmetry rotations/translations
 
                         Centre of mass is constrained
             Set iprint > 1 for details of linear ionic constraints
 
                         Number of cell constraints= 6
                         Cell constraints are:  0 0 0 0 0 0
 
                         External pressure/stress (GPa)
                          0.00000   0.00000   0.00000
                                    0.00000   0.00000
                                              0.00000
  
+---------------- MEMORY AND SCRATCH DISK ESTIMATES PER PROCESS --------------+
|                                                     Memory          Disk    |
| Baseline code, static data and system overhead      622.0 MB         0.0 MB |
| BLAS internal memory storage                          0.0 MB         0.0 MB |
| Model and support data                              741.5 MB         0.0 MB |
| Electronic energy minimisation requirements         236.0 MB         0.0 MB |
| Force calculation requirements                        7.9 MB         0.0 MB |
|                                               ----------------------------- |
| Approx. total storage required per process         1599.5 MB         0.0 MB |
|                                                                             |
| Requirements will fluctuate during execution and may exceed these estimates |
+-----------------------------------------------------------------------------+
Calculating total energy with cut-off of  900.000 eV.
------------------------------------------------------------------------ <-- SCF
SCF loop      Energy           Fermi           Energy gain       Timer   <-- SCF
                               energy          per atom          (sec)   <-- SCF
------------------------------------------------------------------------ <-- SCF
Initial  -2.19133796E+005  0.00000000E+000                        20.52  <-- SCF
      1  -2.63676615E+005  7.13367146E+000   1.74677723E+002     106.24  <-- SCF
      2  -2.70649202E+005  3.65755548E+000   2.73434765E+001     187.56  <-- SCF
      3  -2.71370002E+005  3.53266982E+000   2.82666979E+000     270.22  <-- SCF
      4  -2.71426415E+005  3.65361105E+000   2.21224231E-001     346.16  <-- SCF
      5  -2.71711196E+005  6.62305911E+000   1.11678948E+000     440.51  <-- SCF
      6  -2.71508367E+005  5.53833464E+000  -7.95408156E-001     549.86  <-- SCF
      7  -2.71402740E+005  4.53564111E+000  -4.14223246E-001     649.15  <-- SCF
      8  -2.71386679E+005  4.41403670E+000  -6.29841114E-002     749.89  <-- SCF
      9  -2.71397762E+005  4.48477885E+000   4.34632821E-002     845.28  <-- SCF
     10  -2.71394932E+005  4.43898318E+000  -1.10966864E-002     941.27  <-- SCF
     11  -2.72228751E+005  6.18462957E+000   3.26987698E+000    1042.25  <-- SCF
     12  -2.72240817E+005  6.13657538E+000   4.73167367E-002    1127.65  <-- SCF
     13  -2.71490100E+005  4.77229586E+000  -2.94398820E+000    1254.39  <-- SCF
     14  -2.71561510E+005  4.79964662E+000   2.80039392E-001    1337.22  <-- SCF
     15  -2.71432705E+005  4.32220166E+000  -5.05117685E-001    1435.83  <-- SCF
     16  -2.71397614E+005  4.22577938E+000  -1.37609556E-001    1534.90  <-- SCF
     17  -2.71392740E+005  4.28457750E+000  -1.91151346E-002    1631.27  <-- SCF
     18  -2.71389933E+005  4.34093358E+000  -1.10094754E-002    1723.65  <-- SCF
     19  -2.71387464E+005  4.36644715E+000  -9.68156882E-003    1817.51  <-- SCF
     20  -2.71386120E+005  4.36495332E+000  -5.27170462E-003    1913.33  <-- SCF
     21  -2.71385796E+005  4.35432240E+000  -1.27047061E-003    2006.30  <-- SCF
     22  -2.71385639E+005  4.34922407E+000  -6.12848953E-004    2101.34  <-- SCF
     23  -2.71385525E+005  4.35324526E+000  -4.48929064E-004    2194.54  <-- SCF
     24  -2.71385456E+005  4.36318269E+000  -2.68605418E-004    2290.59  <-- SCF
     25  -2.71385398E+005  4.36626435E+000  -2.29711933E-004    2385.54  <-- SCF
     26  -2.71385247E+005  4.37111065E+000  -5.92002267E-004    2479.70  <-- SCF
     27  -2.71385177E+005  4.37328140E+000  -2.74382041E-004    2578.32  <-- SCF
     28  -2.71385163E+005  4.37461424E+000  -5.33554269E-005    2674.19  <-- SCF
     29  -2.71385144E+005  4.37745794E+000  -7.43009282E-005    2768.06  <-- SCF
     30  -2.71385142E+005  4.37792517E+000  -9.95938299E-006    2858.33  <-- SCF
     31  -2.71385141E+005  4.37886087E+000  -2.46669507E-006    2944.72  <-- SCF
     32  -2.71385139E+005  4.37982032E+000  -9.16851772E-006    3030.22  <-- SCF
     33  -2.71385139E+005  4.37981562E+000  -6.69825535E-007    3091.78  <-- SCF
     34  -2.71385139E+005  4.38004143E+000   5.95838251E-007    3154.30  <-- SCF
------------------------------------------------------------------------ <-- SCF
 
Integrated Spin Density     =    0.141884     hbar/2                        
Integrated |Spin Density|   =    0.223871     hbar/2                        
 
Final energy, E             =  -271380.6438244     eV
Final free energy (E-TS)    =  -271385.1387204     eV
(energies not corrected for finite basis set)
 
NB est. 0K energy (E-0.5TS)      =  -271382.8912724     eV
 

Writing analysis data to castep.castep_bin

Writing model to castep.check
 
+---------------- MEMORY AND SCRATCH DISK ESTIMATES PER PROCESS --------------+
|                                                     Memory          Disk    |
| Model and support data                              750.6 MB         0.0 MB |
| Electronic energy minimisation requirements         236.0 MB         0.0 MB |
| Geometry minimisation requirements                  309.4 MB         0.0 MB |
|                                               ----------------------------- |
| Approx. total storage required per process         1296.0 MB         0.0 MB |
|                                                                             |
| Requirements will fluctuate during execution and may exceed these estimates |
+-----------------------------------------------------------------------------+
 
 
 ************************************** Forces **************************************
 *                                                                                  *
 *                           Cartesian components (eV/A)                            *
 * -------------------------------------------------------------------------------- *
 *                         x                    y                    z              *
 *                                                                                  *
 * Al              1     -0.11912             -0.00560             -0.02569         *
 * Al              2      0.04655             -0.02562             -0.00496         *
 * Al              3     -0.10622             -0.02070              0.00958         *
 * Al              4      0.08364             -0.00992              0.00607         *
 * Al              5     -0.08425              0.00021             -0.13479         *
 * Al              6      0.11999              0.02627              0.00496         *
 * Al              7     -0.16001              0.03677             -0.02741         *
 * Al              8      0.07007              0.01679             -0.02585         *
 * Al              9     -0.08896              0.04934             -0.02087         *
 * Al             10      0.06448              0.01130             -0.02546         *
 * Al             11     -0.05665             -0.13371             -0.01513         *
 * Al             12      0.10673              0.00298             -0.01249         *
 * Al             13      0.34858              0.07423             -0.01234         *
 * Al             14      0.05219             -0.04073             -0.03403         *
 * Al             15     -0.02856              0.00861             -0.11401         *
 * Al             16      0.08240              0.02971             -0.02555         *
 * Al             17     -0.20405              0.05578              0.01274         *
 * Al             18      0.05243              0.01569             -0.00692         *
 * Al             19     -0.16273             -0.08148             -0.01259         *
 * Al             20      0.08872              0.00829             -0.01606         *
 * Al             21     -0.02782              0.02751              0.12850         *
 * Al             22      0.11419             -0.00556             -0.00023         *
 * Al             23      0.01131              0.00703              0.11867         *
 * Al             24      0.02631             -0.00030             -0.01408         *
 * Al             25     -0.12405             -0.05828              0.01416         *
 * Al             26      0.00616             -0.02426              0.01148         *
 * Al             27     -0.12052             -0.00861              0.02536         *
 * Al             28      0.07196              0.02594              0.00516         *
 * Al             29     -0.15239              0.05086              0.00942         *
 * Al             30      0.05695              0.00479              0.01613         *
 * Al             31     -0.18834              0.02261              0.01297         *
 * Al             32      0.09053             -0.02683              0.03120         *
 * Al             33      0.13668              0.10162              0.12287         *
 * Al             34      0.30925              0.16200              0.29269         *
 * Al             35     -0.03541             -0.00829             -0.07529         *
 * Al             36      0.16429              0.04937              0.21351         *
 * Al             37     -0.05064             -0.29146             -0.04781         *
 * Al             38      0.04921              0.06938              0.19246         *
 * Al             39     -0.56842             -0.28425              0.53439         *
 * Al             40      0.15021             -0.17340             -0.03543         *
 * Al             41     -0.76251             -0.03290              0.59919         *
 * Al             42      0.21486              0.29857             -0.06990         *
 * Al             43     -0.07481             -0.17730             -0.06055         *
 * Al             44      0.20839             -0.15934             -0.22193         *
 * Al             45     -0.04036              0.00573              0.15211         *
 * Al             46     -0.04921              0.09242             -0.12965         *
 * Al             47     -0.63053             -0.08517              0.03461         *
 * Al             48     -0.24053             -0.06950             -0.02764         *
 * Al             49      0.01741              0.16367              0.13367         *
 * Al             50     -0.29666              0.05068             -0.04503         *
 * Al             51     -0.52245             -0.09008             -0.67082         *
 * Al             52     -0.12627              0.06266              0.20029         *
 * Al             53     -0.60802             -0.02629             -0.64825         *
 * Al             54      0.09498             -0.06336             -0.16928         *
 * Al             55     -0.18060             -0.19867             -0.04050         *
 * Al             56      0.24069              0.00484             -0.06524         *
 * Al             57     -0.20238             -0.10893             -0.11687         *
 * Al             58     -0.08636              0.03141              0.13411         *
 * Al             59     -0.00583              0.09029             -0.27338         *
 * Al             60     -0.19320             -0.03261             -0.14499         *
 * Al             61      0.01120              0.04207              0.00933         *
 * Al             62     -0.15726             -0.01911              0.26310         *
 * Al             63     -0.03738              0.11303             -0.00396         *
 * Ni              1     -0.00369              0.05033             -0.04771         *
 * Ni              2      0.00712             -0.00576              0.01309         *
 * Ni              3      0.02573              0.01914              0.01780         *
 * Ni              4      0.09579             -0.01160             -0.00379         *
 * Ni              5      0.18532             -0.03360             -0.05064         *
 * Ni              6      0.16621              0.04401             -0.05420         *
 * Ni              7      0.12005              0.20451              0.30751         *
 * Ni              8      0.02790             -0.01259              0.01418         *
 * Ni              9      0.03864              0.00387             -0.02268         *
 * Ni             10     -0.00968              0.00297              0.02182         *
 * Ni             11      0.37667             -0.05791             -0.06717         *
 * Ni             12      0.22361              0.09932             -0.03233         *
 * Ni             13      0.10067             -0.15411              0.18188         *
 * Ni             14     -0.05999             -0.01231              0.00309         *
 * Ni             15     -0.09183             -0.02446              0.03403         *
 * Ni             16     -0.02292              0.00187             -0.01505         *
 * Ni             17      0.17674              0.11677              0.00926         *
 * Ni             18      0.14712             -0.00557             -0.15234         *
 * Ni             19     -0.00051             -0.00536              0.08442         *
 * Ni             20      0.05383              0.00857              0.00604         *
 * Ni             21     -0.00896             -0.00446             -0.00936         *
 * Ni             22      0.02612              0.00536             -0.02418         *
 * Ni             23      0.20463             -0.00694             -0.04634         *
 * Ni             24      0.06209             -0.13231             -0.13589         *
 * Ni             25      0.22631              0.04954             -0.20897         *
 * Ni             26      0.07689              0.05949              0.02587         *
 * Ni             27      0.07924              0.00034             -0.03163         *
 * Ni             28      0.03316              0.01659             -0.05922         *
 * Ni             29      0.11065              0.06264             -0.00391         *
 * Ni             30      0.26093             -0.06342             -0.11290         *
 * Ni             31      0.14220              0.21115             -0.26509         *
 * Ni             32      0.00343             -0.03170              0.03479         *
 * Ni             33     -0.05344              0.02511              0.00744         *
 * Ni             34     -0.03343             -0.06984             -0.02561         *
 * Ni             35      0.23865             -0.00602             -0.00946         *
 * Ni             36      0.31123              0.09469              0.05485         *
 * Ni             37      0.20990             -0.05108             -0.07074         *
 * Ni             38      0.02654             -0.02839             -0.00116         *
 * Ni             39     -0.07592              0.00032              0.02281         *
 * Ni             40     -0.01760             -0.04040             -0.02330         *
 * Ni             41      0.41190              0.00693             -0.02590         *
 * Ni             42      0.26862              0.06571             -0.05546         *
 * Ni             43      0.08974             -0.04612              0.02876         *
 * Ni             44      0.09343             -0.00715             -0.01047         *
 * Ni             45     -0.03329             -0.01171              0.02745         *
 * Ni             46      0.02232              0.06554             -0.01247         *
 * Ni             47     -0.07919              0.14781              0.10384         *
 * Ni             48     -0.01093             -0.11456             -0.09668         *
 * Ni             49      0.20651             -0.05568              0.12806         *
 * Ni             50      0.00328             -0.02485             -0.02840         *
 * Ni             51     -0.09269              0.01229             -0.00777         *
 * Ni             52      0.08418             -0.01335              0.01215         *
 * Ni             53     -0.08450             -0.22665             -0.08142         *
 * Ni             54     -0.14842             -0.05778             -0.21741         *
 * Ni             55      0.09625              0.00222             -0.15425         *
 * Ni             56      0.02006              0.02606             -0.04986         *
 * Ni             57      0.02105              0.02223              0.01330         *
 * Ni             58     -0.00530              0.02269             -0.02126         *
 * Ni             59     -0.03802              0.20630              0.00136         *
 * Ni             60      0.11845             -0.12936             -0.05031         *
 * Ni             61      0.09870              0.05417             -0.16138         *
 * Ni             62     -0.00674             -0.01008              0.00603         *
 * Ni             63     -0.11309              0.00056             -0.05106         *
 * Ni             64     -0.03804              0.01150              0.01668         *
 * Ni             65      0.02198             -0.11447              0.09653         *
 * Ni             66      0.14945              0.02820             -0.04120         *
 * Ni             67      0.08465              0.00068             -0.14454         *
 * Ni             68     -0.00628             -0.00485             -0.00411         *
 * Ni             69     -0.01877             -0.03940             -0.02150         *
 * Ni             70      0.00363             -0.03397              0.00443         *
 * Ni             71     -0.22569              0.04843             -0.50038         *
 * Ni             72     -0.07676             -0.03721              0.11351         *
 * Ni             73      0.09997             -0.00681              0.05762         *
 * Ni             74      0.02828             -0.00373             -0.00302         *
 * Ni             75      0.09804             -0.00874              0.02544         *
 * Ni             76     -0.00499             -0.02903              0.04129         *
 * Ni             77      0.09182             -0.06323             -0.12879         *
 * Ni             78     -0.12804              0.00900              0.18500         *
 * Ni             79      0.11128             -0.03682              0.12937         *
 * Ni             80      0.03566              0.03295              0.00775         *
 * Ni             81      0.00902              0.02438             -0.00334         *
 * Ni             82      0.00058             -0.00731             -0.00442         *
 * Ni             83      0.11269             -0.05141             -0.11832         *
 * Ni             84      0.00936             -0.03158             -0.14092         *
 * Ni             85      0.12017             -0.00889              0.04795         *
 * Ni             86     -0.00202             -0.00365             -0.01135         *
 * Ni             87     -0.01226             -0.01139             -0.00541         *
 * Ni             88     -0.05464              0.02720              0.02110         *
 * Ni             89      0.14173              0.11976             -0.15535         *
 * Ni             90     -0.23367             -0.35035             -0.13230         *
 * Ni             91      0.12774              0.05879             -0.00733         *
 * Ni             92      0.00616             -0.03160              0.01341         *
 * Ni             93     -0.00636             -0.00333             -0.03160         *
 * Ni             94      0.01322              0.01358              0.01972         *
 * Ni             95     -0.11041             -0.07250              0.09532         *
 * Ni             96     -0.34651              0.26522             -0.13319         *
 * Ni             97     -0.27301              0.33488              0.07347         *
 * Ni             98      0.01441             -0.17668              0.17351         *
 * Ni             99      0.01023              0.29257              0.14272         *
 * Ni            100      0.22703              0.05857              0.12166         *
 * Ni            101     -0.20683              0.02985             -0.06849         *
 * Ni            102      0.03194             -0.10385              0.18207         *
 * Ni            103      0.09191              0.02407              0.06184         *
 * Ni            104      0.07672             -0.25537              0.45037         *
 * Ni            105     -0.06938             -0.17830              0.04126         *
 * Ni            106      0.32207             -0.05951              0.05512         *
 * Ni            107     -0.18600             -0.16261              0.00281         *
 * Ni            108     -0.07100             -0.00144              0.00526         *
 * Ni            109      0.01397             -0.00096             -0.04067         *
 * Ni            110     -0.16457             -0.17234              0.15347         *
 * Ni            111     -0.22178             -0.05161             -0.06021         *
 * Ni            112      0.03642             -0.14356             -0.04259         *
 * Ni            113      0.26181              0.13633              0.07208         *
 * Ni            114      0.01492             -0.02165              0.00783         *
 * Ni            115     -0.05925              0.01354              0.13984         *
 * Ni            116      0.08926              0.23350              0.17912         *
 * Ni            117      0.07271              0.01957              0.12737         *
 * Ni            118      0.11403             -0.00437              0.13328         *
 * Ni            119      0.16190              0.09409              0.02890         *
 * Ni            120     -0.02865              0.06329             -0.25712         *
 * Ni            121     -0.11976             -0.06381              0.24390         *
 * Ni            122     -0.17063             -0.05788              0.13319         *
 * Ni            123     -0.08381              0.15189             -0.14883         *
 * Ni            124      0.09975             -0.00447             -0.02420         *
 * Ni            125      0.16049              0.29639             -0.10218         *
 * Ni            126     -0.27573             -0.24477              0.06161         *
 * Ni            127     -0.05091             -0.05114             -0.11523         *
 * Ni            128     -0.17915             -0.07893              0.00848         *
 * Ni            129     -0.03658              0.15835             -0.10991         *
 * Ni            130      0.04642             -0.06485              0.00624         *
 * Ni            131      0.03181              0.00665              0.09828         *
 * Ni            132      0.09385             -0.02416              0.04587         *
 * Ni            133      0.12161             -0.12549             -0.15536         *
 * Ni            134     -0.07777              0.11657              0.19445         *
 * Ni            135     -0.18473              0.05394              0.09075         *
 * Ni            136     -0.18904              0.06423             -0.13858         *
 * Ni            137     -0.34714             -0.39924             -0.02355         *
 * Ni            138      0.12019              0.09071             -0.02123         *
 * Ni            139     -0.12659             -0.03132             -0.08025         *
 * Ni            140      0.12523             -0.02057             -0.00410         *
 * Ni            141     -0.13658              0.08374              0.20092         *
 * Ni            142      0.17646              0.01703             -0.11452         *
 * Ni            143      0.32954              0.19736             -0.22937         *
 * Ni            144     -0.09603             -0.05273              0.01296         *
 * Ni            145      0.17301              0.04412             -0.11107         *
 * Ni            146     -0.35556             -0.22658              0.20685         *
 * Ni            147     -0.04718             -0.07330              0.05721         *
 * Ni            148      0.22183              0.10779             -0.03251         *
 * Ni            149      0.20314             -0.06003             -0.25190         *
 * Ni            150      0.02036             -0.07303              0.23509         *
 * Ni            151     -0.31610              0.06290              0.12901         *
 * Ni            152      0.03668             -0.14419             -0.04391         *
 * Ni            153     -0.06642              0.17129             -0.22182         *
 * Ni            154      0.19293              0.21373              0.02272         *
 * Ni            155     -0.01011             -0.12800              0.07382         *
 * Ni            156     -0.04932             -0.12885             -0.28962         *
 * Ni            157      0.25309              0.05438             -0.25465         *
 * Ni            158     -0.17871              0.11451              0.24265         *
 * Ni            159     -0.15503             -0.05273              0.11493         *
 * Ni            160     -0.25254              0.16150              0.21401         *
 * Ni            161     -0.02381              0.06418              0.10916         *
 * Ni            162     -0.00875             -0.12897              0.07958         *
 * Ni            163      0.00283              0.05963              0.25582         *
 * Ni            164      0.32959             -0.09796             -0.08467         *
 * Ni            165     -0.32798              0.04468              0.17424         *
 * Ni            166     -0.10774              0.12395             -0.01597         *
 * Ni            167     -0.05688             -0.15543              0.09643         *
 * Ni            168     -0.24701              0.15732              0.24773         *
 * Ni            169     -0.02773             -0.12501             -0.05743         *
 * Ni            170      0.06818              0.28752             -0.03269         *
 * Ni            171      0.25488              0.11875              0.32684         *
 * Ni            172      0.25905             -0.14496              0.00079         *
 * Ni            173     -0.26762              0.26719             -0.07366         *
 * Ni            174     -0.06093             -0.00043              0.01467         *
 * Ni            175      0.03466             -0.06945             -0.02354         *
 * Ni            176     -0.02058             -0.06158              0.21669         *
 * Ni            177      0.05951             -0.01429             -0.17746         *
 * Ni            178      0.07419              0.08893             -0.22498         *
 * Ni            179      0.28900             -0.07660              0.06167         *
 * Ni            180     -0.06907              0.02672             -0.11716         *
 * Ni            181     -0.09574             -0.01824              0.06559         *
 * Ni            182     -0.17441             -0.17195             -0.09962         *
 * Ni            183      0.03165              0.10065              0.35055         *
 * Ni            184     -0.15275              0.15944              0.00873         *
 * Ni            185      0.11452             -0.06110              0.01078         *
 * Ni            186     -0.00377             -0.09753             -0.14122         *
 * Ni            187     -0.06864             -0.10565             -0.19080         *
 * Ni            188      0.05092              0.18220             -0.07072         *
 * Ni            189     -0.08488              0.09730              0.27991         *
 * Ni            190      0.13481             -0.01302             -0.20431         *
 * Ni            191     -0.05801              0.04073             -0.11821         *
 * Ni            192      0.09208              0.00039             -0.13370         *
 *                                                                                  *
 ************************************************************************************
 LBFGS: finished iteration     0 with enthalpy= -2.71385139E+005 eV
  
 +-----------+-----------------+-----------------+------------+-----+ <-- LBFGS
 | Parameter |      value      |    tolerance    |    units   | OK? | <-- LBFGS
 +-----------+-----------------+-----------------+------------+-----+ <-- LBFGS
 |  dE/ion   |   0.000000E+000 |   2.000000E-005 |         eV | No  | <-- LBFGS
 |  |F|max   |   9.703306E-001 |   5.000000E-002 |       eV/A | No  | <-- LBFGS
 |  |dR|max  |   0.000000E+000 |   1.000000E-003 |          A | No  | <-- LBFGS
 +-----------+-----------------+-----------------+------------+-----+ <-- LBFGS
  

================================================================================
 Starting LBFGS iteration          1 ...
================================================================================
  
 +------------+-------------+-------------+-----------------+ <-- min LBFGS
 |    Step    |   lambda    |   F.delta'  |    enthalpy     | <-- min LBFGS
 +------------+-------------+-------------+-----------------+ <-- min LBFGS
 |  previous  |    0.000000 |    2.080494 |  -271385.138720 | <-- min LBFGS
 +------------+-------------+-------------+-----------------+ <-- min LBFGS
  

--------------------------------------------------------------------------------
 LBFGS: starting iteration         1 with trial guess (lambda=  1.000000)
--------------------------------------------------------------------------------
 
                           -------------------------------
                                     Cell Contents
                           -------------------------------
 
            xxxxxxxxxxxxxxxxxxxxxxxxxxxxxxxxxxxxxxxxxxxxxxxxxxxxxxxxxxxxxxxxx
            x  Element         Atom        Fractional coordinates of atoms  x
            x                 Number           u          v          w      x
            x---------------------------------------------------------------x
            x  Al                1         0.570689   0.307409   0.813999   x
            x  Al                2         0.818257   0.309203   0.812753   x
            x  Al                3         0.569879   0.559262   0.815374   x
            x  Al                4         0.817608   0.558237   0.813194   x
            x  Al                5         0.575309   0.809635   0.809857   x
            x  Al                6         0.819116   0.807801   0.812323   x
            x  Al                7         0.572234   0.058447   0.812998   x
            x  Al                8         0.819977   0.059145   0.811971   x
            x  Al                9         0.569608   0.305959   0.062212   x
            x  Al               10         0.817821   0.308657   0.063472   x
            x  Al               11         0.573351   0.554855   0.061422   x
            x  Al               12         0.816710   0.558097   0.063512   x
            x  Al               13         0.577386   0.814391   0.062681   x
            x  Al               14         0.819198   0.808318   0.063090   x
            x  Al               15         0.574360   0.057119   0.058897   x
            x  Al               16         0.819978   0.058972   0.062899   x
            x  Al               17         0.570252   0.306347   0.311667   x
            x  Al               18         0.817085   0.309543   0.312892   x
            x  Al               19         0.567321   0.559697   0.311044   x
            x  Al               20         0.816104   0.558296   0.312629   x
            x  Al               21         0.574649   0.809403   0.315793   x
            x  Al               22         0.818589   0.807344   0.313563   x
            x  Al               23         0.577146   0.057429   0.318831   x
            x  Al               24         0.819627   0.058861   0.313713   x
            x  Al               25         0.571626   0.308630   0.563533   x
            x  Al               26         0.817120   0.310217   0.562759   x
            x  Al               27         0.568920   0.558944   0.564416   x
            x  Al               28         0.816575   0.557896   0.562591   x
            x  Al               29         0.570684   0.808503   0.564013   x
            x  Al               30         0.819234   0.807160   0.563079   x
            x  Al               31         0.572534   0.057947   0.562642   x
            x  Al               32         0.820047   0.059085   0.563516   x
            x  Al               33         0.328690   0.182484   0.683960   x
            x  Al               34         0.056347   0.057848   0.557618   x
            x  Al               35         0.192981   0.190296   0.554614   x
            x  Al               36         0.321503   0.935464   0.689233   x
            x  Al               37         0.192688   0.929509   0.554578   x
            x  Al               38         0.318589   0.689970   0.693830   x
            x  Al               39         0.074692   0.687528   0.679201   x
            x  Al               40         0.198700   0.188649   0.322243   x
            x  Al               41         0.067235   0.805439   0.315546   x
            x  Al               42         0.326139   0.685008   0.438489   x
            x  Al               43         0.194379   0.667422   0.313194   x
            x  Al               44         0.337247   0.428704   0.430314   x
            x  Al               45         0.328530   0.555020   0.569550   x
            x  Al               46         0.192227   0.432844   0.306401   x
            x  Al               47         0.063746   0.435367   0.438067   x
            x  Al               48         0.317498   0.060379   0.061868   x
            x  Al               49         0.440412   0.057088   0.194625   x
            x  Al               50         0.185832   0.054900   0.935110   x
            x  Al               51         0.068466   0.185174   0.191287   x
            x  Al               52         0.433457   0.814680   0.189361   x
            x  Al               53         0.070880   0.945104   0.191844   x
            x  Al               54         0.201494   0.808493   0.181697   x
            x  Al               55         0.432128   0.677762   0.059846   x
            x  Al               56         0.334573   0.430833   0.188780   x
            x  Al               57         0.188484   0.425157   0.063027   x
            x  Al               58         0.187099   0.186345   0.807249   x
            x  Al               59         0.434360   0.816953   0.935011   x
            x  Al               60         0.191704   0.811555   0.937411   x
            x  Al               61         0.191592   0.426151   0.805284   x
            x  Al               62         0.193512   0.427293   0.570994   x
            x  Al               63         0.188910   0.565179   0.934065   x
            x  Ni                1         0.568089   0.431583   0.937402   x
            x  Ni                2         0.694195   0.307829   0.938155   x
            x  Ni                3         0.693660   0.433457   0.813680   x
            x  Ni                4         0.817459   0.433621   0.938628   x
            x  Ni                5         0.942309   0.309345   0.938030   x
            x  Ni                6         0.942052   0.434086   0.812838   x
            x  Ni                7         0.564560   0.687907   0.941129   x
            x  Ni                8         0.693043   0.558930   0.938122   x
            x  Ni                9         0.693551   0.683087   0.813966   x
            x  Ni               10         0.818577   0.683032   0.938124   x
            x  Ni               11         0.941989   0.558335   0.938224   x
            x  Ni               12         0.942550   0.682773   0.812723   x
            x  Ni               13         0.569290   0.932594   0.935604   x
            x  Ni               14         0.695877   0.808931   0.937000   x
            x  Ni               15         0.696465   0.934206   0.811714   x
            x  Ni               16         0.820190   0.933578   0.937129   x
            x  Ni               17         0.942752   0.807900   0.937688   x
            x  Ni               18         0.943313   0.933126   0.812263   x
            x  Ni               19         0.569019   0.182484   0.937287   x
            x  Ni               20         0.696302   0.058329   0.936466   x
            x  Ni               21         0.694849   0.183630   0.812464   x
            x  Ni               22         0.819216   0.183989   0.937600   x
            x  Ni               23         0.943230   0.058861   0.937518   x
            x  Ni               24         0.943047   0.184532   0.812491   x
            x  Ni               25         0.562051   0.432043   0.190776   x
            x  Ni               26         0.691790   0.307458   0.187568   x
            x  Ni               27         0.692029   0.431825   0.064115   x
            x  Ni               28         0.816730   0.433650   0.188255   x
            x  Ni               29         0.942228   0.309361   0.188371   x
            x  Ni               30         0.941795   0.433956   0.063352   x
            x  Ni               31         0.563840   0.688641   0.183056   x
            x  Ni               32         0.690688   0.558870   0.187672   x
            x  Ni               33         0.693685   0.683939   0.062810   x
            x  Ni               34         0.817653   0.682940   0.188173   x
            x  Ni               35         0.941832   0.558436   0.188240   x
            x  Ni               36         0.942280   0.682965   0.063248   x
            x  Ni               37         0.568174   0.934978   0.189937   x
            x  Ni               38         0.694881   0.809432   0.188652   x
            x  Ni               39         0.697443   0.934903   0.062691   x
            x  Ni               40         0.820065   0.933469   0.188601   x
            x  Ni               41         0.942698   0.807809   0.188410   x
            x  Ni               42         0.943025   0.933272   0.062978   x
            x  Ni               43         0.568982   0.177779   0.187812   x
            x  Ni               44         0.695446   0.057653   0.188496   x
            x  Ni               45         0.694966   0.182747   0.062708   x
            x  Ni               46         0.818729   0.183913   0.188196   x
            x  Ni               47         0.943239   0.058832   0.188486   x
            x  Ni               48         0.942748   0.184205   0.063080   x
            x  Ni               49         0.563666   0.433789   0.432842   x
            x  Ni               50         0.692611   0.309593   0.437731   x
            x  Ni               51         0.690933   0.433685   0.311874   x
            x  Ni               52         0.816579   0.434354   0.437470   x
            x  Ni               53         0.942351   0.309893   0.437886   x
            x  Ni               54         0.941909   0.434227   0.313016   x
            x  Ni               55         0.567438   0.684520   0.439103   x
            x  Ni               56         0.690526   0.558328   0.437353   x
            x  Ni               57         0.691778   0.682954   0.312035   x
            x  Ni               58         0.817362   0.682049   0.437732   x
            x  Ni               59         0.942032   0.558388   0.437733   x
            x  Ni               60         0.942267   0.682691   0.313169   x
            x  Ni               61         0.570526   0.932734   0.440223   x
            x  Ni               62         0.695254   0.807622   0.439485   x
            x  Ni               63         0.696969   0.933152   0.314368   x
            x  Ni               64         0.820086   0.932779   0.438924   x
            x  Ni               65         0.942850   0.807320   0.438141   x
            x  Ni               66         0.943132   0.933040   0.313578   x
            x  Ni               67         0.571315   0.182278   0.439166   x
            x  Ni               68         0.697557   0.058306   0.440094   x
            x  Ni               69         0.695485   0.183730   0.313332   x
            x  Ni               70         0.818901   0.185011   0.438516   x
            x  Ni               71         0.943145   0.058935   0.438226   x
            x  Ni               72         0.942565   0.184489   0.313353   x
            x  Ni               73         0.568025   0.433792   0.690699   x
            x  Ni               74         0.693270   0.308976   0.688392   x
            x  Ni               75         0.690456   0.434403   0.562164   x
            x  Ni               76         0.817127   0.434066   0.687523   x
            x  Ni               77         0.942571   0.309795   0.687440   x
            x  Ni               78         0.942118   0.434286   0.562587   x
            x  Ni               79         0.568206   0.684288   0.688876   x
            x  Ni               80         0.692470   0.558439   0.688827   x
            x  Ni               81         0.693189   0.682534   0.563295   x
            x  Ni               82         0.818073   0.682286   0.687961   x
            x  Ni               83         0.942239   0.558262   0.687647   x
            x  Ni               84         0.942408   0.682367   0.562723   x
            x  Ni               85         0.569619   0.934265   0.687081   x
            x  Ni               86         0.695696   0.808112   0.687120   x
            x  Ni               87         0.696002   0.933036   0.563642   x
            x  Ni               88         0.819989   0.933421   0.687445   x
            x  Ni               89         0.942922   0.807539   0.687606   x
            x  Ni               90         0.943613   0.932954   0.562931   x
            x  Ni               91         0.568763   0.182424   0.688037   x
[...]
            Ni 105 -- Ni 131                 0.02        -0.00          2.58782
            Ni 43  -- Ni 144                 0.01         0.00          2.58790
             Al 5  -- Ni 108                 0.16        -0.00          2.58824
             Al 40 -- Ni 124                 0.20        -0.00          2.58834
            Ni 14  -- Ni 39                  0.02        -0.00          2.58850
            Ni 25  -- Ni 32                  0.03         0.00          2.58867
            Ni 28  -- Ni 51                  0.04        -0.00          2.58899
            Ni 114 -- Ni 140                 0.05         0.00          2.58904
            Ni 36  -- Ni 129                 0.11        -0.00          2.58929
             Al 11 -- Ni 7                   0.20         0.00          2.58933
             Al 15 -- Ni 44                  0.20        -0.00          2.58953
            Ni 12  -- Ni 89                  0.03        -0.00          2.58956
            Ni 110 -- Ni 136                 0.06        -0.00          2.58968
             Al 14 -- Ni 16                  0.19         0.00          2.58995
             Al 61 -- Ni 102                 0.16        -0.00          2.59008
            Ni 142 -- Ni 143                 0.05         0.00          2.59047
             Al 60 -- Ni 112                 0.17        -0.00          2.59065
             Al 40 -- Ni 145                 0.17         0.00          2.59078
            Ni 130 -- Ni 131                 0.12        -0.00          2.59120
            Ni 104 -- Ni 177                 0.05        -0.00          2.59127
            Ni 37  -- Ni 38                  0.07        -0.00          2.59132
             Al 61 -- Ni 97                  0.18        -0.00          2.59136
            Ni 67  -- Ni 165                 0.02         0.00          2.59175
            Ni 71  -- Ni 96                  0.01         0.00          2.59191
             Al 48 -- Ni 141                 0.18         0.00          2.59208
            Ni 90  -- Ni 95                  0.01        -0.00          2.59211
            Ni 183 -- Ni 185                 0.07        -0.00          2.59227
            Ni 110 -- Ni 112                 0.05        -0.00          2.59228
            Ni 133 -- Ni 135                 0.03         0.00          2.59242
            Ni 128 -- Ni 144                 0.14         0.00          2.59274
            Ni 13  -- Ni 120                 0.04         0.00          2.59338
            Ni 169 -- Ni 171                -0.00         0.00          2.59354
            Ni 101 -- Ni 144                 0.09         0.00          2.59373
            Ni 34  -- Ni 41                  0.06        -0.00          2.59392
             Al 40 -- Ni 163                 0.16        -0.00          2.59396
            Ni 174 -- Ni 182                 0.00         0.00          2.59460
             Al 12 -- Ni 32                  0.20        -0.00          2.59485
             Al 16 -- Ni 40                  0.19        -0.00          2.59491
             Al 43 -- Ni 150                 0.18        -0.00          2.59493
            Ni 116 -- Ni 118                 0.02        -0.00          2.59552
             Al 49 -- Ni 139                 0.18         0.00          2.59569
            Ni 26  -- Ni 43                  0.06         0.00          2.59580
            Ni 41  -- Ni 66                 -0.03        -0.00          2.59593
            Ni 170 -- Ni 175                -0.01        -0.00          2.59598
            Ni 1   -- Ni 8                   0.03        -0.00          2.59601
             Al 27 -- Ni 49                  0.18         0.00          2.59619
            Ni 145 -- Ni 170                -0.00        -0.00          2.59627
             Al 17 -- Ni 69                  0.18        -0.00          2.59637
             Al 51 -- Ni 124                 0.19        -0.00          2.59640
            Ni 155 -- Ni 156                 0.06        -0.00          2.59640
             Al 63 -- Ni 97                  0.17         0.00          2.59642
            Ni 59  -- Ni 78                 -0.00        -0.00          2.59645
             Al 34 -- Ni 162                 0.16        -0.00          2.59670
            Ni 129 -- Ni 132                 0.12         0.00          2.59683
            Ni 151 -- Ni 174                -0.04         0.00          2.59693
            Ni 60  -- Ni 65                  0.01         0.00          2.59708
            Ni 13  -- Ni 139                -0.01         0.00          2.59723
             Al 44 -- Ni 170                 0.16         0.00          2.59735
             Al 41 -- Ni 129                 0.20         0.00          2.59765
            Ni 51  -- Ni 52                  0.03        -0.00          2.59768
             Al 15 -- Ni 37                  0.19        -0.00          2.59812
            Ni 138 -- Ni 139                -0.01         0.00          2.59826
            Ni 151 -- Ni 152                 0.04         0.00          2.59858
            Ni 35  -- Ni 129                 0.10        -0.00          2.59897
             Al 56 -- Ni 128                 0.15         0.00          2.59915
            Ni 111 -- Ni 186                 0.08        -0.00          2.59929
             Al 56 -- Ni 135                 0.15        -0.00          2.59930
            Ni 13  -- Ni 20                  0.06        -0.00          2.59930
            Ni 53  -- Ni 54                  0.00        -0.00          2.59960
             Al 38 -- Ni 188                 0.17        -0.00          2.60058
            Ni 49  -- Ni 75                  0.01         0.00          2.60061
            Ni 41  -- Ni 42                  0.03        -0.00          2.60081
            Ni 150 -- Ni 178                 0.08        -0.00          2.60083
             Al 3  -- Ni 180                 0.17        -0.00          2.60096
             Al 60 -- Ni 113                 0.19        -0.00          2.60182
            Ni 68  -- Ni 69                  0.03         0.00          2.60192
             Al 58 -- Ni 117                 0.15        -0.00          2.60216
            Ni 112 -- Ni 122                 0.11        -0.00          2.60231
            Ni 133 -- Ni 160                -0.02         0.00          2.60247
             Al 50 -- Ni 142                 0.15        -0.00          2.60297
            Ni 13  -- Ni 39                  0.01        -0.00          2.60321
             Al 22 -- Ni 57                  0.19        -0.00          2.60343
            Ni 54  -- Ni 59                  0.00        -0.00          2.60378
            Ni 117 -- Ni 122                 0.03        -0.00          2.60386
            Ni 123 -- Ni 124                 0.02         0.00          2.60415
            Ni 138 -- Ni 159                 0.02         0.00          2.60435
            Ni 111 -- Ni 115                 0.04        -0.00          2.60439
            Ni 155 -- Ni 157                 0.07         0.00          2.60451
            Ni 99  -- Ni 169                 0.01         0.00          2.60453
            Ni 47  -- Ni 163                 0.06        -0.00          2.60487
            Ni 25  -- Ni 27                  0.00         0.00          2.60520
            Ni 95  -- Ni 96                  0.01        -0.00          2.60549
            Ni 55  -- Ni 181                 0.06         0.00          2.60641
            Ni 161 -- Ni 162                -0.01        -0.00          2.60691
            Ni 152 -- Ni 158                 0.03         0.00          2.60716
            Ni 53  -- Ni 78                  0.00        -0.00          2.60748
            Ni 143 -- Ni 167                 0.01         0.00          2.60787
            Ni 147 -- Ni 170                -0.02        -0.00          2.60861
             Al 55 -- Ni 31                  0.17        -0.00          2.60868
             Al 9  -- Ni 43                  0.19        -0.00          2.60879
             Al 21 -- Ni 159                 0.16         0.00          2.60884
            Ni 113 -- Ni 139                 0.01         0.00          2.60923
             Al 9  -- Ni 144                 0.19         0.00          2.60943
            Ni 173 -- Ni 192                -0.01         0.00          2.60991
             Al 38 -- Ni 177                 0.17         0.00          2.61012
            Ni 169 -- Ni 172                 0.01        -0.00          2.61035
             Al 51 -- Ni 163                 0.16        -0.00          2.61075
            Ni 71  -- Ni 90                  0.02         0.00          2.61095
            Ni 129 -- Ni 130                 0.08         0.00          2.61102
            Ni 146 -- Ni 174                 0.01         0.00          2.61115
             Al 34 -- Ni 122                 0.16        -0.00          2.61136
            Ni 178 -- Ni 185                 0.08         0.00          2.61163
            Ni 130 -- Ni 153                -0.01         0.00          2.61192
            Ni 121 -- Ni 173                 0.01         0.00          2.61219
             Al 17 -- Ni 43                  0.17         0.00          2.61220
             Al 11 -- Ni 107                 0.16        -0.00          2.61248
            Ni 117 -- Ni 191                 0.08        -0.00          2.61281
             Al 38 -- Ni 178                 0.17         0.00          2.61300
            Ni 156 -- Ni 167                 0.11        -0.00          2.61305
            Ni 172 -- Ni 177                -0.02        -0.00          2.61310
             Al 58 -- Ni 122                 0.18        -0.00          2.61367
            Ni 115 -- Ni 117                 0.09        -0.00          2.61457
            Ni 178 -- Ni 184                 0.03         0.00          2.61524
             Al 48 -- Ni 120                 0.18         0.00          2.61578
            Ni 168 -- Ni 177                 0.03         0.00          2.61610
             Al 46 -- Ni 153                 0.15         0.00          2.61630
            Ni 65  -- Ni 66                  0.02         0.00          2.61632
             Al 53 -- Ni 137                 0.18        -0.00          2.61651
             Al 61 -- Ni 104                 0.15         0.00          2.61654
            Ni 158 -- Ni 181                -0.01         0.00          2.61716
            Ni 127 -- Ni 134                 0.02         0.00          2.61762
            Ni 138 -- Ni 160                 0.05         0.00          2.61819
            Ni 152 -- Ni 160                 0.02         0.00          2.61868
            Ni 178 -- Ni 179                 0.06        -0.00          2.61876
             Al 40 -- Ni 143                 0.18         0.00          2.61889
             Al 21 -- Ni 31                  0.19         0.00          2.61896
            Ni 130 -- Ni 149                -0.02         0.00          2.61998
             Al 35 -- Ni 122                 0.17         0.00          2.62041
            Ni 37  -- Ni 39                  0.01        -0.00          2.62090
            Ni 42  -- Ni 47                 -0.01        -0.00          2.62092
             Al 36 -- Ni 184                 0.18        -0.00          2.62101
             Al 36 -- Ni 122                 0.17        -0.00          2.62111
            Ni 110 -- Ni 118                 0.04        -0.00          2.62220
             Al 5  -- Ni 7                   0.19         0.00          2.62316
            Ni 102 -- Ni 109                -0.00        -0.00          2.62318
             Al 58 -- Ni 119                 0.16        -0.00          2.62344
            Ni 140 -- Ni 141                 0.07         0.00          2.62356
            Ni 159 -- Ni 160                 0.09        -0.00          2.62501
            Ni 65  -- Ni 148                 0.04        -0.00          2.62509
            Ni 136 -- Ni 141                 0.01         0.00          2.62638
            Ni 156 -- Ni 157                 0.12        -0.00          2.62781
             Al 50 -- Ni 117                 0.14        -0.00          2.62875
             Al 47 -- Ni 150                 0.18        -0.00          2.62885
             Al 43 -- Ni 155                 0.18        -0.00          2.62897
             Al 44 -- Ni 175                 0.16         0.00          2.62970
            Ni 102 -- Ni 108                 0.09        -0.00          2.62974
            Ni 158 -- Ni 160                 0.11        -0.00          2.62993
             Al 5  -- Ni 115                 0.15        -0.00          2.63062
            Ni 170 -- Ni 171                -0.02        -0.00          2.63070
             Al 23 -- Ni 166                 0.14         0.00          2.63176
            Ni 124 -- Ni 125                 0.03        -0.00          2.63195
             Al 52 -- Ni 37                  0.15         0.00          2.63406
            Ni 134 -- Ni 135                 0.09        -0.00          2.63443
            Ni 108 -- Ni 111                 0.02        -0.00          2.63451
             Al 38 -- Ni 182                 0.16        -0.00          2.63491
            Ni 162 -- Ni 164                 0.01         0.00          2.63491
            Ni 114 -- Ni 138                 0.00         0.00          2.63519
            Ni 154 -- Ni 155                 0.06         0.00          2.63542
             Al 63 -- Ni 100                 0.16        -0.00          2.63753
             Al 39 -- Ni 178                 0.18        -0.00          2.63760
             Al 52 -- Ni 31                  0.16         0.00          2.63843
            Ni 155 -- Ni 188                 0.03        -0.00          2.63876
            Ni 150 -- Ni 153                -0.01         0.00          2.63904
             Al 11 -- Ni 31                  0.17        -0.00          2.63907
            Ni 7   -- Ni 107                 0.01        -0.00          2.63970
             Al 37 -- Ni 190                 0.15        -0.00          2.63978
            Ni 156 -- Ni 162                 0.13        -0.00          2.64089
            Ni 31  -- Ni 32                  0.05         0.00          2.64100
             Al 23 -- Ni 159                 0.14         0.00          2.64134
            Ni 126 -- Ni 127                -0.00         0.00          2.64250
            Ni 31  -- Ni 57                  0.07         0.00          2.64377
             Al 44 -- Ni 150                 0.14        -0.00          2.64407
             Al 3  -- Ni 7                   0.18         0.00          2.64500
            Ni 114 -- Ni 133                -0.03         0.00          2.64519
             Al 59 -- Ni 7                   0.15         0.00          2.64542
             Al 46 -- Ni 147                 0.13         0.00          2.64624
             Al 48 -- Al 50                  0.25        -0.00          2.64631
            Ni 106 -- Ni 135                 0.03        -0.00          2.64775
             Al 13 -- Ni 139                 0.16         0.00          2.64779
             Al 50 -- Al 58                  0.24        -0.00          2.65048
             Al 48 -- Al 49                  0.26         0.00          2.65056
             Al 37 -- Ni 122                 0.16         0.00          2.65253
             Al 35 -- Ni 189                 0.15         0.00          2.65320
             Al 33 -- Ni 122                 0.15        -0.00          2.65617
             Al 50 -- Ni 119                 0.13        -0.00          2.65833
            Ni 7   -- Ni 8                   0.05        -0.00          2.65892
             Al 35 -- Ni 190                 0.13        -0.00          2.66004
            Ni 7   -- Ni 9                   0.06        -0.00          2.66219
             Al 43 -- Ni 160                 0.15        -0.00          2.66642
             Al 42 -- Al 43                  0.25         0.00          2.66899
             Al 42 -- Ni 153                 0.16        -0.00          2.67036
             Al 23 -- Al 49                  0.24         0.00          2.67160
             Al 38 -- Al 45                  0.23         0.00          2.67953
            Ni 168 -- Ni 169                 0.02        -0.00          2.68888
            Ni 148 -- Ni 150                 0.07         0.00          2.69074
             Al 45 -- Al 62                  0.21        -0.00          2.69576
             Al 46 -- Al 56                  0.26         0.00          2.69646
            Ni 161 -- Ni 170                 0.02         0.00          2.70738
             Al 5  -- Al 59                  0.20         0.00          2.71266
             Al 19 -- Ni 31                  0.13        -0.00          2.71409
             Al 56 -- Ni 130                 0.10        -0.00          2.71529
             Al 42 -- Al 45                  0.21         0.00          2.71942
             Al 11 -- Al 55                  0.20         0.00          2.72072
            Ni 164 -- Ni 170                 0.04         0.00          2.72094
             Al 36 -- Al 37                  0.22         0.00          2.72419
            Ni 149 -- Ni 150                 0.00        -0.00          2.72453
             Al 56 -- Ni 124                 0.10         0.00          2.73340
             Al 46 -- Al 47                  0.21        -0.00          2.73473
             Al 55 -- Al 59                  0.20        -0.00          2.73495
             Al 34 -- Al 35                  0.19        -0.00          2.73796
             Al 33 -- Al 35                  0.21        -0.00          2.73881
             Al 33 -- Al 58                  0.20        -0.00          2.74142
             Al 21 -- Al 52                  0.20         0.00          2.74365
             Al 34 -- Al 37                  0.19         0.00          2.74533
             Al 61 -- Al 63                  0.20        -0.00          2.75025
             Al 57 -- Al 63                  0.19        -0.00          2.75031
             Al 52 -- Al 55                  0.20         0.00          2.76108
             Al 47 -- Al 62                  0.18        -0.00          2.76597
             Al 15 -- Al 49                  0.19         0.00          2.77150
             Al 44 -- Al 46                  0.20         0.00          2.77377
             Al 40 -- Al 51                  0.20        -0.00          2.77782
             Al 53 -- Al 54                  0.18        -0.00          2.78007
             Al 42 -- Ni 150                 0.11         0.00          2.78165
             Al 44 -- Al 45                  0.15        -0.00          2.78505
             Al 41 -- Al 43                  0.16         0.00          2.78564
             Al 41 -- Al 53                  0.17        -0.00          2.80099
             Al 43 -- Al 54                  0.16         0.00          2.80595
             Al 13 -- Al 59                  0.17        -0.00          2.82906
             Al 13 -- Al 52                  0.17         0.00          2.83074
             Al 56 -- Al 57                  0.15        -0.00          2.84029
             Al 41 -- Al 54                  0.13        -0.00          2.86677
             Al 13 -- Al 55                  0.08        -0.00          2.95355
================================================================================
 

Writing analysis data to castep.castep_bin

Writing model to castep.check
 
 A BibTeX formatted list of references used in this run has been written to 
 castep.bib
 
Initialisation time =     13.82 s
Calculation time    =  18925.29 s
Finalisation time   =     11.44 s
Total time          =  18950.55 s
Peak Memory Use     = 2366736 kB
  
Overall parallel efficiency rating: Good (70%)                                  
  
Data was distributed by:-
G-vector (48-way); efficiency rating: Good (71%)                                
