 +-------------------------------------------------+
 |                                                 |
 |      CCC   AA    SSS  TTTTT  EEEEE  PPPP        |
 |     C     A  A  S       T    E      P   P       |
 |     C     AAAA   SS     T    EEE    PPPP        |
 |     C     A  A     S    T    E      P           |
 |      CCC  A  A  SSS     T    EEEEE  P           |
 |                                                 |
 +-------------------------------------------------+
 |                                                 |
 | Welcome to Academic Release CASTEP version 20.11|          
 | Ab Initio Total Energy Program                  |
 |                                                 |
 | Authors:                                        |
 | M. Segall, M. Probert, C. Pickard, P. Hasnip,   |
 | S. Clark, K. Refson, J. R. Yates, M. Payne      |
 |                                                 |
 | Contributors:                                   |
 | P. Lindan, P. Haynes, J. White, V. Milman,      |
 | N. Govind, M. Gibson, P. Tulip, V. Cocula,      |
 | B. Montanari, D. Quigley, M. Glover,            |
 | L. Bernasconi, A. Perlov, M. Plummer,           |
 | E. McNellis, J. Meyer, J. Gale, D. Jochym       |
 | J. Aarons, B. Walker, R. Gillen, D. Jones       |
 | T. Green, I. J. Bush, C. J. Armstrong,          |
 | E. J. Higgins, E. L. Brown, M. S. McFly,        |
 | J. Wilkins, B-C. Shih, P. J. P. Byrne,          |
 | R. J. Maurer, J. C. Womack, J. Dziedzic,        |
 | J. R. Kermode, A. Bartok-Partay                 |
 |                                                 |
 | Copyright (c) 2000 - 2020                       |
 |                                                 |
 |     Distributed under license from Cambridge    |
 |     Enterprise for academic use only.           |
 |                                                 |
 | Please cite                                     |
 |                                                 |
 |     "First principles methods using CASTEP"     |
 |                                                 |
 |         Zeitschrift fuer Kristallographie       |
 |           220(5-6) pp. 567-570 (2005)           |
 |                                                 |
 | S. J. Clark, M. D. Segall, C. J. Pickard,       |
 | P. J. Hasnip, M. J. Probert, K. Refson,         |
 | M. C. Payne                                     |
 |                                                 |
 |       in all publications arising from          |
 |              your use of CASTEP                 |
 |                                                 |
 +-------------------------------------------------+
 |                                                 |
 |              http://www.castep.org              |
 |                                                 |
 +-------------------------------------------------+
 
 
 
 Compiled for linux_x86_64_ifort on Wed, 25 Aug 2021 18:50:38 +0100
 from code version e772bf432+  HEAD  Sat Apr 3 17:41:32 2021 +0100
 Compiler: Intel Fortran 19.0.5.281; Optimisation: fast
 MATHLIBS: Intel MKL(2019.0.5) (LAPACK version 3.7.0)
 FFT Lib : mkl
 Fundamental constants values: CODATA 2014
 
 Run started: Thu, 09 Mar 2023 11:11:14 +0000
 
 Atomic calculation performed for Al: 1s2 2s2 2p6 3s2 3p1
 
 Converged in 52 iterations to an ae energy of -6606.982 eV
 
   ============================================================                
   | Pseudopotential Report - Date of generation  9-03-2023   |                
   ------------------------------------------------------------                
   | Element: Al Ionic charge:  3.00 Level of theory: RPBE    |                
   | Atomic Solver: Koelling-Harmon                           |                
   |                                                          |                
   |               Reference Electronic Structure             |                
   |         Orbital         Occupation         Energy        |                
   |            3s              2.000           -0.284        |                
   |            3p              1.000           -0.100        |                
   |                                                          |                
   |                 Pseudopotential Definition               |                
   |        Beta     l      e      Rc     scheme   norm       |                
   |          1      0   -0.284   2.192     qc      0         |                
   |          2      0    0.250   2.192     qc      0         |                
   |          3      1   -0.100   2.192     qc      0         |                
   |          4      1    0.250   2.192     qc      0         |                
   |          5      2    0.000   2.000     qc      0         |                
   |          6      2    0.250   2.000     qc      0         |                
   |         loc     3    0.000   2.192     pn      0         |                
   |                                                          |                
   | Augmentation charge Rinner = 1.398                       |                
   | Partial core correction Rc = 1.398                       |                
   ------------------------------------------------------------                
   | "3|2.2|2.2|1.4|4|5|5|30:31:32U2U2"                       |                
   ------------------------------------------------------------                
   |      Author: Chris J. Pickard, Cambridge University      |                
   ============================================================                
 
 Atomic calculation performed for Ni: 1s2 2s2 2p6 3s2 3p6 3d8 4s2
 
 Converged in 109 iterations to an ae energy of -41381.414 eV
 
   ============================================================                
   | Pseudopotential Report - Date of generation  9-03-2023   |                
   ------------------------------------------------------------                
   | Element: Ni Ionic charge: 10.00 Level of theory: RPBE    |                
   | Atomic Solver: Koelling-Harmon                           |                
   |                                                          |                
   |               Reference Electronic Structure             |                
   |         Orbital         Occupation         Energy        |                
   |            3d              8.000           -0.324        |                
   |            4s              2.000           -0.204        |                
   |                                                          |                
   |                 Pseudopotential Definition               |                
   |        Beta     l      e      Rc     scheme   norm       |                
   |          1      0   -0.204   2.401     qc      0         |                
   |          2      0    0.250   2.401     qc      0         |                
   |          3      1    0.000   2.401     qc      0         |                
   |          4      1    0.250   2.401     qc      0         |                
   |          5      2   -0.324   1.999     qc      0         |                
   |          6      2    0.250   1.999     qc      0         |                
   |         loc     3    0.000   2.401     pn      0         |                
   |                                                          |                
   | Augmentation charge Rinner = 1.001                       |                
   | Partial core correction Rc = 1.001                       |                
   ------------------------------------------------------------                
   | "3|2.4|2.4|1.0|8|9|10|40:41:32U2U2(qc=5.5)"              |                
   ------------------------------------------------------------                
   |      Author: Chris J. Pickard, Cambridge University      |                
   ============================================================                
 
 Pseudo atomic calculation performed for Al 3s2 3p1
 
 Converged in 13 iterations to a total energy of -107.6592 eV
 
 Pseudo atomic calculation performed for Ni 3d8 4s2
 
 Converged in 41 iterations to a total energy of -1369.7891 eV
 Calculation parallelised over 48 processes.
 Data is distributed by G-vector(48-way)

 ************************************ Title ************************************
 

 ***************************** General Parameters ******************************
  
 output verbosity                               : normal  (1)
 write checkpoint data to                       : castep.check
 type of calculation                            : geometry optimization
 stress calculation                             : off
 density difference calculation                 : off
 electron localisation func (ELF) calculation   : off
 Hirshfeld analysis                             : off
 molecular orbital projected DOS                : off
 deltaSCF calculation                           : off
 unlimited duration calculation
 timing information                             : on
 memory usage estimate                          : on
 write extra output files                       : on
 write final potential to formatted file        : off
 write final density to formatted file          : off
 write BibTeX reference list                    : on
 write OTFG pseudopotential files               : on
 write electrostatic potential file             : on
 write bands file                               : on
 checkpoint writing                             : both castep_bin and check files
  
 output         length unit                     : A
 output           mass unit                     : amu
 output           time unit                     : ps
 output         charge unit                     : e
 output           spin unit                     : hbar/2
 output         energy unit                     : eV
 output          force unit                     : eV/A
 output       velocity unit                     : A/ps
 output       pressure unit                     : GPa
 output     inv_length unit                     : 1/A
 output      frequency unit                     : cm-1
 output force constant unit                     : eV/A**2
 output         volume unit                     : A**3
 output   IR intensity unit                     : (D/A)**2/amu
 output         dipole unit                     : D
 output         efield unit                     : eV/A/e
 output        entropy unit                     : J/mol/K
 output    efield chi2 unit                     : pm/V
  
 wavefunctions paging                           : none
 random number generator seed                   : randomised (111115092)
 data distribution                              : optimal for this architecture
 optimization strategy                          : maximize speed(+++)

 *********************** Exchange-Correlation Parameters ***********************
  
 using functional                               : revised Perdew Burke Ernzerhof
 relativistic treatment                         : Koelling-Harmon
 DFT+D: Semi-empirical dispersion correction    : off

 ************************* Pseudopotential Parameters **************************
  
 pseudopotential representation                 : reciprocal space
 <beta|phi> representation                      : reciprocal space
 spin-orbit coupling                            : off

 **************************** Basis Set Parameters *****************************
  
 plane wave basis set cut-off                   :   900.0000   eV
 size of standard grid                          :     1.7500
 size of   fine   gmax                          :    26.8966   1/A
 finite basis set correction                    : none

 **************************** Electronic Parameters ****************************
  
 number of  electrons                           :  2109.    
 net charge of system                           :  0.000    
 net spin   of system                           :  1.000    
 number of  up  spins                           :  1055.    
 number of down spins                           :  1054.    
 treating system as spin-polarized
 number of bands                                :       1167

 ********************* Electronic Minimization Parameters **********************
  
 Method: Treating system as metallic with density mixing treatment of electrons,
         and number of  SD  steps               :          1
         and number of  CG  steps               :          4
  
 total energy / atom convergence tol.           : 0.1000E-05   eV
 eigen-energy convergence tolerance             : 0.2185E-06   eV
 max force / atom convergence tol.              : ignored
 convergence tolerance window                   :          3   cycles
 max. number of SCF cycles                      :        200
 number of fixed-spin iterations                :         10
 smearing scheme                                : Gaussian
 smearing width                                 : 0.2000       eV
 Fermi energy convergence tolerance             : 0.2721E-13   eV
 periodic dipole correction                     : NONE
 periodically dump wavefunctions to             : castep.wvfn
 dump wavefunctions every                       :          1   SCF cycles

 ************************** Density Mixing Parameters **************************
  
 density-mixing scheme                          : Pulay
 max. length of mixing history                  :         20
 charge density mixing amplitude                : 0.8000    
   spin density mixing amplitude                :  2.000    
 cut-off energy for mixing                      :  900.0       eV

 *********************** Population Analysis Parameters ************************
  
 Population analysis with cutoff                :  3.000       A
 Population analysis output                     : summary and pdos components

 ********************** Geometry Optimization Parameters ***********************
  
 optimization method                            : LBFGS
 max. no. of LBFGS updates                      : unbounded
 variable cell method                           : fixed basis quality
 max. number of steps                           :         30
 estimated bulk modulus                         :  500.0       GPa
 estimated <frequency>                          :  1668.       cm-1
 geom line minimiser                            : on
 with line minimiser tolerance                  :     0.4000
  with spin fully able to relax for all steps
 total energy convergence tolerance             : 0.2000E-04   eV/atom
        max ionic |force| tolerance             : 0.5000E-01   eV/A
 max ionic |displacement| tolerance             : 0.1000E-02   A
   max |stress component| tolerance             : 0.1000       GPa
 convergence tolerance window                   :          2   steps
 backup results every                           :          5   steps
 write geom trajectory file                     : on

 *******************************************************************************
  
 
                           -------------------------------
                                      Unit Cell
                           -------------------------------
        Real Lattice(A)                      Reciprocal Lattice(1/A)
    14.4648280     0.0000000     0.0000000        0.434376773   0.000000000   0.000000000
     0.0000000    14.4648280     0.0000000        0.000000000   0.434376773   0.000000000
     0.0000000     0.0000000    14.4648280        0.000000000   0.000000000   0.434376773
 
                       Lattice parameters(A)       Cell Angles
                    a =     14.464828          alpha =   90.000000
                    b =     14.464828          beta  =   90.000000
                    c =     14.464828          gamma =   90.000000
 
                       Current cell volume =          3026.494030       A**3
                                   density =             4.285146   AMU/A**3
                                           =             7.115653     g/cm^3
 
                           -------------------------------
                                     Cell Contents
                           -------------------------------
                         Total number of ions in cell =  255
                      Total number of species in cell =    2
                        Max number of any one species =  192
 
            xxxxxxxxxxxxxxxxxxxxxxxxxxxxxxxxxxxxxxxxxxxxxxxxxxxxxxxxxxxx
            x  Element    Atom        Fractional coordinates of atoms  x
            x            Number           u          v          w      x
            x----------------------------------------------------------x
            x  Al           1         0.569914   0.062268   0.563400   x 
            x  Al           2         0.817886   0.062702   0.562293   x 
            x  Al           3         0.571326   0.313714   0.563733   x 
            x  Al           4         0.817793   0.312321   0.562197   x 
            x  Al           5         0.575956   0.564329   0.557999   x 
            x  Al           6         0.819487   0.562716   0.561217   x 
            x  Al           7         0.570756   0.811322   0.562575   x 
            x  Al           8         0.819300   0.813302   0.561438   x 
            x  Al           9         0.568277   0.060825   0.810142   x 
            x  Al          10         0.817102   0.062675   0.812107   x 
            x  Al          11         0.568521   0.314862   0.809500   x 
            x  Al          12         0.817194   0.312545   0.812246   x 
            x  Al          13         0.576711   0.564923   0.811928   x 
            x  Al          14         0.819014   0.562739   0.812282   x 
            x  Al          15         0.572330   0.810586   0.807730   x 
            x  Al          16         0.818888   0.812969   0.811947   x 
            x  Al          17         0.570853   0.061092   0.060985   x 
            x  Al          18         0.816543   0.063324   0.061285   x 
            x  Al          19         0.569267   0.313893   0.061118   x 
            x  Al          20         0.816646   0.311963   0.061317   x 
            x  Al          21         0.574427   0.563415   0.065283   x 
            x  Al          22         0.818937   0.562269   0.062407   x 
            x  Al          23         0.575528   0.811561   0.067231   x 
            x  Al          24         0.818841   0.813205   0.062171   x 
            x  Al          25         0.570987   0.062746   0.313221   x 
            x  Al          26         0.817521   0.063197   0.312039   x 
            x  Al          27         0.571130   0.312914   0.313141   x 
            x  Al          28         0.817504   0.311860   0.311826   x 
            x  Al          29         0.572063   0.563308   0.311932   x 
            x  Al          30         0.819634   0.562232   0.311674   x 
            x  Al          31         0.571440   0.812034   0.311527   x 
            x  Al          32         0.819532   0.813647   0.312279   x 
            x  Al          33         0.328358   0.935891   0.433978   x 
            x  Al          34         0.056452   0.810500   0.306764   x 
            x  Al          35         0.192701   0.943166   0.304569   x 
            x  Al          36         0.321584   0.688042   0.438444   x 
            x  Al          37         0.192977   0.681602   0.303990   x 
            x  Al          38         0.325230   0.321985   0.552566   x 
            x  Al          39         0.070627   0.442533   0.428117   x 
            x  Al          40         0.198529   0.942188   0.071740   x 
            x  Al          41         0.066508   0.559396   0.064374   x 
            x  Al          42         0.324770   0.438179   0.188004   x 
            x  Al          43         0.192849   0.421135   0.062131   x 
            x  Al          44         0.330279   0.185915   0.187331   x 
            x  Al          45         0.326226   0.320523   0.329449   x 
            x  Al          46         0.190646   0.187946   0.056819   x 
            x  Al          47         0.063232   0.189851   0.188453   x 
            x  Al          48         0.317477   0.813389   0.810006   x 
            x  Al          49         0.439134   0.810911   0.943181   x 
            x  Al          50         0.186585   0.807143   0.683226   x 
            x  Al          51         0.068713   0.938500   0.940343   x 
            x  Al          52         0.433444   0.564356   0.936156   x 
            x  Al          53         0.071056   0.699058   0.940732   x 
            x  Al          54         0.200510   0.561752   0.930805   x 
            x  Al          55         0.325033   0.318923   0.806852   x 
            x  Al          56         0.329486   0.182126   0.936815   x 
            x  Al          57         0.184679   0.178246   0.810099   x 
            x  Al          58         0.186825   0.939826   0.556145   x 
            x  Al          59         0.433987   0.565087   0.685709   x 
            x  Al          60         0.191627   0.563846   0.684843   x 
            x  Al          61         0.187133   0.178798   0.554082   x 
            x  Al          62         0.192688   0.183494   0.322238   x 
            x  Al          63         0.180611   0.320182   0.680852   x 
            x  Ni           1         0.567781   0.187250   0.686921   x 
            x  Ni           2         0.693347   0.062091   0.687252   x 
            x  Ni           3         0.693804   0.187531   0.562979   x 
            x  Ni           4         0.817371   0.187795   0.687549   x 
            x  Ni           5         0.941927   0.063082   0.687172   x 
            x  Ni           6         0.941953   0.187806   0.562079   x 
            x  Ni           7         0.568649   0.443251   0.685700   x 
            x  Ni           8         0.692883   0.313665   0.687336   x 
            x  Ni           9         0.695485   0.437838   0.561775   x 
            x  Ni          10         0.818713   0.437399   0.687117   x 
            x  Ni          11         0.941986   0.312484   0.687119   x 
            x  Ni          12         0.942301   0.437135   0.561687   x 
            x  Ni          13         0.567910   0.684487   0.685160   x 
            x  Ni          14         0.696625   0.563573   0.686012   x 
            x  Ni          15         0.696096   0.688579   0.560894   x 
            x  Ni          16         0.819837   0.688146   0.686534   x 
            x  Ni          17         0.942509   0.562321   0.686806   x 
            x  Ni          18         0.943098   0.687672   0.561454   x 
            x  Ni          19         0.567564   0.936669   0.686091   x 
            x  Ni          20         0.694683   0.811907   0.685884   x 
            x  Ni          21         0.693643   0.937260   0.561979   x 
            x  Ni          22         0.818269   0.937692   0.686897   x 
            x  Ni          23         0.942952   0.813018   0.686815   x 
            x  Ni          24         0.942735   0.938304   0.561866   x 
            x  Ni          25         0.448372   0.187100   0.061132   x 
            x  Ni          26         0.691109   0.061788   0.935598   x 
            x  Ni          27         0.691814   0.187760   0.811614   x 
            x  Ni          28         0.816260   0.187694   0.936603   x 
            x  Ni          29         0.941696   0.063184   0.936993   x 
            x  Ni          30         0.941663   0.187822   0.812209   x 
            x  Ni          31         0.566824   0.442017   0.937073   x 
            x  Ni          32         0.690868   0.313368   0.935934   x 
            x  Ni          33         0.694169   0.438068   0.811969   x 
            x  Ni          34         0.817901   0.437233   0.937136   x 
            x  Ni          35         0.941812   0.312391   0.937094   x 
            x  Ni          36         0.942254   0.437320   0.812220   x 
            x  Ni          37         0.566709   0.687567   0.938336   x 
            x  Ni          38         0.694975   0.563728   0.937909   x 
            x  Ni          39         0.695992   0.688428   0.811819   x 
            x  Ni          40         0.819490   0.688066   0.937364   x 
            x  Ni          41         0.942562   0.562260   0.937347   x 
            x  Ni          42         0.942882   0.687619   0.812067   x 
            x  Ni          43         0.567230   0.933024   0.936651   x 
            x  Ni          44         0.693557   0.811713   0.937025   x 
            x  Ni          45         0.693370   0.936722   0.811480   x 
            x  Ni          46         0.817759   0.937801   0.936689   x 
            x  Ni          47         0.942962   0.813066   0.937204   x 
            x  Ni          48         0.942290   0.938134   0.812034   x 
            x  Ni          49         0.567516   0.188384   0.187366   x 
            x  Ni          50         0.692717   0.063161   0.186937   x 
            x  Ni          51         0.690881   0.187741   0.060752   x 
            x  Ni          52         0.816979   0.187602   0.186306   x 
            x  Ni          53         0.942177   0.063491   0.186628   x 
            x  Ni          54         0.941704   0.187820   0.061692   x 
            x  Ni          55         0.568409   0.437731   0.187652   x 
            x  Ni          56         0.692751   0.312276   0.186633   x 
            x  Ni          57         0.693883   0.437310   0.062005   x 
            x  Ni          58         0.818402   0.436604   0.186784   x 
            x  Ni          59         0.941951   0.312131   0.186641   x 
            x  Ni          60         0.942215   0.436929   0.062039   x 
            x  Ni          61         0.569833   0.686988   0.188832   x 
            x  Ni          62         0.695810   0.562339   0.188119   x 
            x  Ni          63         0.696133   0.687683   0.062976   x 
            x  Ni          64         0.819865   0.687798   0.187431   x 
            x  Ni          65         0.942918   0.562043   0.186923   x 
            x  Ni          66         0.943076   0.687683   0.062276   x 
            x  Ni          67         0.569658   0.937236   0.187931   x 
            x  Ni          68         0.696330   0.812938   0.188574   x 
            x  Ni          69         0.694472   0.937766   0.061850   x 
            x  Ni          70         0.818445   0.938845   0.187168   x 
            x  Ni          71         0.943084   0.813294   0.186929   x 
            x  Ni          72         0.942160   0.938497   0.061904   x 
            x  Ni          73         0.569480   0.186862   0.439068   x 
            x  Ni          74         0.693324   0.062195   0.437981   x 
            x  Ni          75         0.693072   0.187567   0.312292   x 
            x  Ni          76         0.817603   0.187490   0.437206   x 
            x  Ni          77         0.942441   0.063281   0.436845   x 
            x  Ni          78         0.941972   0.187762   0.311688   x 
            x  Ni          79         0.571426   0.439691   0.436650   x 
            x  Ni          80         0.693326   0.312427   0.437615   x 
            x  Ni          81         0.694612   0.437116   0.311678   x 
            x  Ni          82         0.818691   0.436830   0.436512   x 
            x  Ni          83         0.942207   0.312224   0.436802   x 
            x  Ni          84         0.942568   0.436753   0.311672   x 
            x  Ni          85         0.569225   0.688196   0.435706   x 
            x  Ni          86         0.696754   0.563312   0.435494   x 
            x  Ni          87         0.695928   0.688095   0.312177   x 
            x  Ni          88         0.819908   0.688442   0.436376   x 
            x  Ni          89         0.942779   0.562196   0.436498   x 
            x  Ni          90         0.943509   0.687756   0.311750   x 
            x  Ni          91         0.567662   0.936365   0.437708   x 
            x  Ni          92         0.694343   0.813108   0.436750   x 
            x  Ni          93         0.693924   0.938128   0.312745   x 
            x  Ni          94         0.818658   0.938232   0.437052   x 
            x  Ni          95         0.943548   0.813242   0.436615   x 
            x  Ni          96         0.942981   0.938695   0.311794   x 
            x  Ni          97         0.067653   0.183681   0.682189   x 
            x  Ni          98         0.190990   0.060409   0.682831   x 
            x  Ni          99         0.062765   0.058258   0.557209   x 
            x  Ni         100         0.310165   0.194111   0.682107   x 
            x  Ni         101         0.441656   0.061482   0.686293   x 
            x  Ni         102         0.314631   0.437189   0.682013   x 
            x  Ni         103         0.319189   0.060688   0.561003   x 
            x  Ni         104         0.061364   0.315334   0.554457   x 
            x  Ni         105         0.062296   0.442707   0.684876   x 
            x  Ni         106         0.316346   0.562541   0.808321   x 
            x  Ni         107         0.444291   0.316057   0.683701   x 
            x  Ni         108         0.447179   0.442376   0.560741   x 
            x  Ni         109         0.189712   0.439874   0.557176   x 
            x  Ni         110         0.066004   0.687355   0.684245   x 
            x  Ni         111         0.317715   0.559248   0.556476   x 
            x  Ni         112         0.190788   0.687838   0.556226   x 
            x  Ni         113         0.314242   0.688906   0.682646   x 
            x  Ni         114         0.445280   0.442993   0.809979   x 
            x  Ni         115         0.444073   0.686517   0.561405   x 
            x  Ni         116         0.065473   0.933996   0.682774   x 
            x  Ni         117         0.315731   0.814326   0.558954   x 
            x  Ni         118         0.066897   0.811094   0.554734   x 
            x  Ni         119         0.314037   0.934187   0.684023   x 
            x  Ni         120         0.442295   0.810027   0.686260   x 
            x  Ni         121         0.444068   0.936335   0.562664   x 
            x  Ni         122         0.193063   0.813604   0.427665   x 
            x  Ni         123         0.064742   0.184660   0.936937   x 
            x  Ni         124         0.193479   0.061159   0.938094   x 
            x  Ni         125         0.062789   0.057103   0.810672   x 
            x  Ni         126         0.446937   0.058666   0.934956   x 
            x  Ni         127         0.441975   0.188059   0.807484   x 
            x  Ni         128         0.318675   0.062345   0.808675   x 
            x  Ni         129         0.070497   0.437202   0.939142   x 
            x  Ni         130         0.195801   0.306015   0.929993   x 
            x  Ni         131         0.189914   0.436244   0.809433   x 
            x  Ni         132         0.064365   0.311733   0.810497   x 
            x  Ni         133         0.316724   0.434333   0.936697   x 
            x  Ni         134         0.565907   0.187486   0.934177   x 
            x  Ni         135         0.445420   0.314770   0.933840   x 
            x  Ni         136         0.067432   0.814065   0.812001   x 
            x  Ni         137         0.069645   0.567635   0.815231   x 
            x  Ni         138         0.315283   0.690014   0.938087   x 
            x  Ni         139         0.443041   0.687930   0.812259   x 
            x  Ni         140         0.191356   0.690604   0.811427   x 
            x  Ni         141         0.195539   0.817531   0.939481   x 
            x  Ni         142         0.191136   0.937971   0.809473   x 
            x  Ni         143         0.317640   0.938547   0.938035   x 
            x  Ni         144         0.442359   0.933619   0.811179   x 
            x  Ni         145         0.065062   0.063254   0.064132   x 
            x  Ni         146         0.448874   0.061524   0.187468   x 
            x  Ni         147         0.322397   0.064818   0.062745   x 
            x  Ni         148         0.065290   0.432565   0.187353   x 
            x  Ni         149         0.064075   0.309808   0.062767   x 
            x  Ni         150         0.198699   0.303777   0.192798   x 
            x  Ni         151         0.445129   0.314012   0.189692   x 
            x  Ni         152         0.444666   0.438714   0.061126   x 
            x  Ni         153         0.322371   0.308254   0.061719   x 
            x  Ni         154         0.065079   0.685420   0.184907   x 
            x  Ni         155         0.192893   0.555813   0.182881   x 
            x  Ni         156         0.191928   0.686357   0.063687   x 
            x  Ni         157         0.318091   0.684058   0.187633   x 
            x  Ni         158         0.445563   0.562977   0.185684   x 
            x  Ni         159         0.443511   0.686113   0.063031   x 
            x  Ni         160         0.316063   0.558729   0.061804   x 
            x  Ni         161         0.065618   0.939554   0.186025   x 
            x  Ni         162         0.191714   0.812263   0.190173   x 
            x  Ni         163         0.068945   0.815963   0.064843   x 
            x  Ni         164         0.320536   0.940037   0.189619   x 
            x  Ni         165         0.445433   0.811061   0.185899   x 
            x  Ni         166         0.444406   0.936369   0.063422   x 
            x  Ni         167         0.317929   0.812996   0.066284   x 
            x  Ni         168         0.063779   0.184962   0.433379   x 
            x  Ni         169         0.194018   0.056834   0.433969   x 
            x  Ni         170         0.194285   0.072094   0.187868   x 
            x  Ni         171         0.063294   0.062600   0.307828   x 
            x  Ni         172         0.319585   0.187976   0.439529   x 
            x  Ni         173         0.446991   0.062494   0.438561   x 
            x  Ni         174         0.445860   0.188538   0.314786   x 
            x  Ni         175         0.323212   0.063908   0.313195   x 
            x  Ni         176         0.066015   0.564451   0.556593   x 
            x  Ni         177         0.191162   0.313180   0.439074   x 
            x  Ni         178         0.196310   0.435365   0.310379   x 
            x  Ni         179         0.064328   0.311834   0.312021   x 
            x  Ni         180         0.442861   0.187434   0.563917   x 
            x  Ni         181         0.446701   0.439764   0.314479   x 
            x  Ni         182         0.451175   0.314262   0.440681   x 
            x  Ni         183         0.067890   0.685381   0.429051   x 
            x  Ni         184         0.195002   0.563019   0.433071   x 
            x  Ni         185         0.065167   0.561363   0.306179   x 
            x  Ni         186         0.445282   0.563443   0.437334   x 
            x  Ni         187         0.444061   0.686891   0.311388   x 
            x  Ni         188         0.321089   0.559215   0.314214   x 
            x  Ni         189         0.066128   0.935884   0.429185   x 
            x  Ni         190         0.320187   0.811038   0.310346   x 
            x  Ni         191         0.445803   0.810605   0.437185   x 
            x  Ni         192         0.446291   0.936276   0.311075   x 
            xxxxxxxxxxxxxxxxxxxxxxxxxxxxxxxxxxxxxxxxxxxxxxxxxxxxxxxxxxxx
 
 
                         No user defined ionic velocities
 
                           -------------------------------
                                   Details of Species
                           -------------------------------
 
                               Mass of species in AMU
                                    Al   26.9815400
                                    Ni   58.6934000
 
                          Electric Quadrupole Moment (Barn)
                                    Al    0.1466000 Isotope 27
                                    Ni    0.1620000 Isotope 61
 
                          Files used for pseudopotentials:
                                    Al 3|2.2|2.2|1.4|4|5|5|30:31:32U2U2
                                    Ni 3|2.4|2.4|1.0|8|9|10|40:41:32U2U2(qc=5.5)
 
                           -------------------------------
                              k-Points For BZ Sampling
                           -------------------------------
                       MP grid size for SCF calculation is  1  1  1
                            with an offset of   0.000  0.000  0.000
                       Number of kpoints used =             1
 
                           -------------------------------
                               Symmetry and Constraints
                           -------------------------------
 
                      Maximum deviation from symmetry =  0.00000         ANG
 
                      Number of symmetry operations   =           1
                      Number of ionic constraints     =           3
                      Point group of crystal =     1: C1, 1, 1
                      Space group of crystal =     1: P1, P 1
 
             Set iprint > 1 for details on symmetry rotations/translations
 
                         Centre of mass is constrained
             Set iprint > 1 for details of linear ionic constraints
 
                         Number of cell constraints= 6
                         Cell constraints are:  0 0 0 0 0 0
 
                         External pressure/stress (GPa)
                          0.00000   0.00000   0.00000
                                    0.00000   0.00000
                                              0.00000
  
+---------------- MEMORY AND SCRATCH DISK ESTIMATES PER PROCESS --------------+
|                                                     Memory          Disk    |
| Baseline code, static data and system overhead      622.0 MB         0.0 MB |
| BLAS internal memory storage                          0.0 MB         0.0 MB |
| Model and support data                              741.5 MB         0.0 MB |
| Electronic energy minimisation requirements         236.0 MB         0.0 MB |
| Force calculation requirements                        7.9 MB         0.0 MB |
|                                               ----------------------------- |
| Approx. total storage required per process         1599.5 MB         0.0 MB |
|                                                                             |
| Requirements will fluctuate during execution and may exceed these estimates |
+-----------------------------------------------------------------------------+
Calculating total energy with cut-off of  900.000 eV.
------------------------------------------------------------------------ <-- SCF
SCF loop      Energy           Fermi           Energy gain       Timer   <-- SCF
                               energy          per atom          (sec)   <-- SCF
------------------------------------------------------------------------ <-- SCF
Initial  -2.19129027E+005  0.00000000E+000                        20.87  <-- SCF
      1  -2.63670402E+005  7.13825627E+000   1.74672060E+002     106.02  <-- SCF
      2  -2.70650460E+005  3.65638410E+000   2.73727772E+001     187.72  <-- SCF
      3  -2.71369209E+005  3.53010876E+000   2.81862316E+000     270.73  <-- SCF
      4  -2.71426451E+005  3.64694694E+000   2.24479133E-001     346.96  <-- SCF
      5  -2.71710562E+005  6.62189386E+000   1.11415861E+000     441.60  <-- SCF
      6  -2.71508709E+005  5.54276507E+000  -7.91578548E-001     550.44  <-- SCF
      7  -2.71402121E+005  4.53018755E+000  -4.17993063E-001     649.14  <-- SCF
      8  -2.71386605E+005  4.41009365E+000  -6.08483657E-002     750.36  <-- SCF
      9  -2.71399595E+005  4.48985262E+000   5.09427178E-002     845.10  <-- SCF
     10  -2.71395517E+005  4.43880399E+000  -1.59939152E-002     943.26  <-- SCF
     11  -2.72244709E+005  6.10073764E+000   3.33016573E+000    1044.56  <-- SCF
     12  -2.72256311E+005  6.04916558E+000   4.54960831E-002    1128.95  <-- SCF
     13  -2.71480350E+005  4.78646909E+000  -3.04298405E+000    1253.87  <-- SCF
     14  -2.71547224E+005  4.79347271E+000   2.62250809E-001    1336.43  <-- SCF
     15  -2.71423166E+005  4.31914277E+000  -4.86498980E-001    1446.35  <-- SCF
     16  -2.71394271E+005  4.23347935E+000  -1.13313323E-001    1539.83  <-- SCF
     17  -2.71390166E+005  4.27036382E+000  -1.60991371E-002    1632.87  <-- SCF
     18  -2.71388652E+005  4.33591181E+000  -5.93906344E-003    1725.64  <-- SCF
     19  -2.71386760E+005  4.36864641E+000  -7.41976313E-003    1818.69  <-- SCF
     20  -2.71385944E+005  4.36157492E+000  -3.19961676E-003    1911.81  <-- SCF
     21  -2.71385641E+005  4.35015524E+000  -1.18711852E-003    2004.53  <-- SCF
     22  -2.71385540E+005  4.34569553E+000  -3.97616289E-004    2098.28  <-- SCF
     23  -2.71385453E+005  4.35241486E+000  -3.41184833E-004    2192.01  <-- SCF
     24  -2.71385354E+005  4.35929604E+000  -3.86778498E-004    2284.18  <-- SCF
     25  -2.71385301E+005  4.36282526E+000  -2.07604117E-004    2377.35  <-- SCF
     26  -2.71385187E+005  4.36632756E+000  -4.46609917E-004    2472.85  <-- SCF
     27  -2.71385158E+005  4.36762221E+000  -1.12986174E-004    2568.64  <-- SCF
     28  -2.71385139E+005  4.36989627E+000  -7.48672655E-005    2664.58  <-- SCF
     29  -2.71385113E+005  4.37348008E+000  -1.04563184E-004    2758.57  <-- SCF
     30  -2.71385111E+005  4.37398738E+000  -5.51933380E-006    2845.20  <-- SCF
     31  -2.71385112E+005  4.37459358E+000   2.82253779E-006    2920.25  <-- SCF
     32  -2.71385110E+005  4.37515126E+000  -6.01342110E-006    2992.26  <-- SCF
     33  -2.71385110E+005  4.37522949E+000  -2.00368446E-007    3055.16  <-- SCF
     34  -2.71385110E+005  4.37517261E+000   3.33282659E-007    3118.15  <-- SCF
------------------------------------------------------------------------ <-- SCF
 
Integrated Spin Density     =    0.164032     hbar/2                        
Integrated |Spin Density|   =    0.251614     hbar/2                        
 
Final energy, E             =  -271380.4830308     eV
Final free energy (E-TS)    =  -271385.1104278     eV
(energies not corrected for finite basis set)
 
NB est. 0K energy (E-0.5TS)      =  -271382.7967293     eV
 

Writing analysis data to castep.castep_bin

Writing model to castep.check
 
+---------------- MEMORY AND SCRATCH DISK ESTIMATES PER PROCESS --------------+
|                                                     Memory          Disk    |
| Model and support data                              750.6 MB         0.0 MB |
| Electronic energy minimisation requirements         236.0 MB         0.0 MB |
| Geometry minimisation requirements                  309.4 MB         0.0 MB |
|                                               ----------------------------- |
| Approx. total storage required per process         1296.0 MB         0.0 MB |
|                                                                             |
| Requirements will fluctuate during execution and may exceed these estimates |
+-----------------------------------------------------------------------------+
 
 
 ************************************** Forces **************************************
 *                                                                                  *
 *                           Cartesian components (eV/A)                            *
 * -------------------------------------------------------------------------------- *
 *                         x                    y                    z              *
 *                                                                                  *
 * Al              1     -0.09924             -0.00860             -0.02387         *
 * Al              2      0.03081             -0.04434             -0.01887         *
 * Al              3     -0.01855             -0.02929             -0.00394         *
 * Al              4      0.06697              0.00054              0.01387         *
 * Al              5     -0.01150              0.02912             -0.12707         *
 * Al              6      0.09054              0.02598              0.01050         *
 * Al              7     -0.15926              0.04048             -0.03384         *
 * Al              8      0.07201              0.00947             -0.03383         *
 * Al              9     -0.04088              0.00534              0.00404         *
 * Al             10      0.03454              0.01306             -0.02082         *
 * Al             11     -0.06623             -0.02960              0.00708         *
 * Al             12      0.08864              0.01456             -0.00605         *
 * Al             13      0.19528             -0.01829             -0.00937         *
 * Al             14      0.04470             -0.04320             -0.03177         *
 * Al             15      0.00243              0.01917             -0.12301         *
 * Al             16      0.07562              0.00882             -0.02749         *
 * Al             17     -0.15883             -0.02421              0.00531         *
 * Al             18      0.04347              0.01525              0.00540         *
 * Al             19     -0.09939             -0.02133              0.04145         *
 * Al             20      0.06693              0.02521             -0.00975         *
 * Al             21     -0.03141             -0.00682              0.10731         *
 * Al             22      0.09912             -0.01766             -0.01343         *
 * Al             23      0.03063              0.02229              0.12854         *
 * Al             24      0.02115             -0.00868             -0.01507         *
 * Al             25     -0.12754             -0.04061              0.00276         *
 * Al             26     -0.01237             -0.02378              0.01642         *
 * Al             27     -0.08262              0.02626             -0.04735         *
 * Al             28      0.06819              0.02674             -0.01270         *
 * Al             29     -0.15637              0.03140              0.02832         *
 * Al             30      0.03760             -0.00537              0.01650         *
 * Al             31     -0.18034              0.01797              0.01836         *
 * Al             32      0.08313             -0.02329              0.04075         *
 * Al             33      0.15213              0.11993              0.11876         *
 * Al             34      0.32098              0.23619              0.27164         *
 * Al             35     -0.04738             -0.00825             -0.09053         *
 * Al             36      0.14493             -0.06040              0.20814         *
 * Al             37     -0.05447             -0.25885             -0.04443         *
 * Al             38     -0.03857              0.15988             -0.20907         *
 * Al             39     -0.29315             -0.31875              0.58480         *
 * Al             40      0.12691             -0.18383             -0.02499         *
 * Al             41     -0.72702             -0.00839              0.58637         *
 * Al             42      0.19622              0.28900              0.03964         *
 * Al             43     -0.00207             -0.13348             -0.11991         *
 * Al             44      0.16318             -0.19249             -0.19565         *
 * Al             45     -0.09950              0.18540              0.38588         *
 * Al             46     -0.15572              0.06658             -0.15887         *
 * Al             47     -0.62900             -0.10817             -0.00901         *
 * Al             48     -0.22646             -0.08669             -0.03454         *
 * Al             49      0.02259              0.17992              0.16961         *
 * Al             50     -0.32929              0.04869             -0.06008         *
 * Al             51     -0.53439             -0.07939             -0.67020         *
 * Al             52     -0.06651             -0.10727              0.07143         *
 * Al             53     -0.59608             -0.00779             -0.65434         *
 * Al             54      0.10898             -0.08061             -0.19097         *
 * Al             55      0.05503              0.34522              0.08145         *
 * Al             56      0.28509             -0.07655             -0.02203         *
 * Al             57     -0.27690             -0.20497             -0.07276         *
 * Al             58     -0.10920              0.03174              0.14800         *
 * Al             59      0.03608             -0.06991             -0.13697         *
 * Al             60     -0.17987             -0.02142             -0.11893         *
 * Al             61     -0.07256             -0.07686             -0.04901         *
 * Al             62     -0.14931              0.01988              0.28404         *
 * Al             63     -0.32043              0.21642              0.03748         *
 * Ni              1      0.00170             -0.00217             -0.06272         *
 * Ni              2      0.01386             -0.00978              0.00838         *
 * Ni              3      0.03043              0.01324             -0.01557         *
 * Ni              4      0.09065             -0.01637             -0.01522         *
 * Ni              5      0.11022             -0.11046             -0.06191         *
 * Ni              6      0.01829              0.01358             -0.09805         *
 * Ni              7      0.08067              0.04498              0.07707         *
 * Ni              8      0.08412             -0.02191              0.00090         *
 * Ni              9     -0.00633              0.02636              0.01576         *
 * Ni             10      0.02491              0.00774              0.02702         *
 * Ni             11      0.24387             -0.05443             -0.06504         *
 * Ni             12      0.03752              0.18226             -0.07878         *
 * Ni             13      0.11450             -0.07365              0.15569         *
 * Ni             14     -0.03141             -0.00212             -0.00883         *
 * Ni             15     -0.07378             -0.02124              0.02243         *
 * Ni             16     -0.03156              0.02052             -0.02029         *
 * Ni             17      0.06810              0.18727              0.00992         *
 * Ni             18      0.11047             -0.01847             -0.15695         *
 * Ni             19      0.01188             -0.02588              0.09679         *
 * Ni             20      0.07049              0.01052             -0.00141         *
 * Ni             21     -0.00530             -0.00124             -0.01453         *
 * Ni             22      0.03375              0.00307             -0.01781         *
 * Ni             23      0.20313             -0.04362             -0.05578         *
 * Ni             24      0.01137             -0.21828             -0.14790         *
 * Ni             25      0.15281              0.01445             -0.00363         *
 * Ni             26      0.11272              0.04831             -0.00020         *
 * Ni             27      0.02712              0.00054             -0.00020         *
 * Ni             28      0.03387              0.01735             -0.04485         *
 * Ni             29      0.11894              0.04272              0.02837         *
 * Ni             30      0.17465             -0.10139             -0.09196         *
 * Ni             31      0.19863              0.15514             -0.10565         *
 * Ni             32      0.07331             -0.03967              0.01889         *
 * Ni             33     -0.04928              0.04168             -0.01188         *
 * Ni             34     -0.02383             -0.06006             -0.02457         *
 * Ni             35      0.16871             -0.01073              0.03148         *
 * Ni             36      0.23944              0.12893              0.06811         *
 * Ni             37      0.22475              0.01826             -0.05313         *
 * Ni             38      0.05639             -0.01356              0.00144         *
 * Ni             39     -0.09513             -0.02469              0.01104         *
 * Ni             40     -0.00971             -0.02877             -0.02202         *
 * Ni             41      0.39048              0.03210             -0.04180         *
 * Ni             42      0.25530              0.06483             -0.07109         *
 * Ni             43      0.10395             -0.14522              0.00117         *
 * Ni             44      0.10490              0.00522             -0.00031         *
 * Ni             45     -0.02573             -0.01755              0.01872         *
 * Ni             46      0.03151              0.06785             -0.01133         *
 * Ni             47     -0.05413              0.12962              0.09431         *
 * Ni             48     -0.02788             -0.18590             -0.09728         *
 * Ni             49      0.15690             -0.05214              0.06075         *
 * Ni             50      0.03222             -0.02025             -0.00325         *
 * Ni             51      0.04912              0.00302              0.01016         *
 * Ni             52      0.06063             -0.00229              0.00130         *
 * Ni             53     -0.07208             -0.22796             -0.06329         *
 * Ni             54     -0.12956             -0.05602             -0.18498         *
 * Ni             55      0.09800              0.06516             -0.10348         *
 * Ni             56      0.01432              0.02987             -0.00669         *
 * Ni             57     -0.06601              0.01119             -0.00266         *
 * Ni             58     -0.02554              0.02600             -0.03034         *
 * Ni             59     -0.13386              0.17617             -0.01134         *
 * Ni             60      0.06922             -0.14533             -0.04087         *
 * Ni             61      0.08542              0.05273             -0.16114         *
 * Ni             62      0.00110             -0.01561              0.00992         *
 * Ni             63     -0.09585              0.00016             -0.03185         *
 * Ni             64     -0.03341              0.00772              0.02187         *
 * Ni             65     -0.04692             -0.09412              0.07781         *
 * Ni             66      0.14038              0.03534             -0.03470         *
 * Ni             67      0.09816             -0.05956             -0.11385         *
 * Ni             68      0.00885             -0.00341             -0.00357         *
 * Ni             69     -0.03195             -0.02788             -0.01680         *
 * Ni             70     -0.00004             -0.03177             -0.00393         *
 * Ni             71     -0.21203              0.01939             -0.47954         *
 * Ni             72     -0.03977             -0.05004              0.13281         *
 * Ni             73      0.08422             -0.01477              0.05065         *
 * Ni             74      0.03133              0.00652              0.00258         *
 * Ni             75      0.02584              0.00291              0.00401         *
 * Ni             76      0.00318             -0.02973              0.04648         *
 * Ni             77      0.00421             -0.11421             -0.15683         *
 * Ni             78     -0.23014              0.00847              0.16525         *
 * Ni             79     -0.04293             -0.06773              0.14441         *
 * Ni             80      0.07361              0.01336              0.00111         *
 * Ni             81      0.01827              0.02558             -0.00704         *
 * Ni             82      0.00142             -0.01022             -0.00545         *
 * Ni             83     -0.11596             -0.05423             -0.21409         *
 * Ni             84     -0.14191             -0.01363             -0.19061         *
 * Ni             85      0.10131             -0.05933              0.05447         *
 * Ni             86      0.01362             -0.00185             -0.00309         *
 * Ni             87     -0.01624             -0.01782              0.00108         *
 * Ni             88     -0.05490              0.02398              0.02164         *
 * Ni             89      0.02451              0.16413             -0.16470         *
 * Ni             90     -0.30538             -0.37564             -0.13787         *
 * Ni             91      0.14745              0.05862              0.00017         *
 * Ni             92      0.00006             -0.04925              0.00949         *
 * Ni             93     -0.00015             -0.00419             -0.01954         *
 * Ni             94      0.01494             -0.00297              0.01472         *
 * Ni             95     -0.10662             -0.12673              0.09599         *
 * Ni             96     -0.34382              0.22317             -0.12855         *
 * Ni             97     -0.06913              0.38665              0.12329         *
 * Ni             98      0.07136             -0.10749              0.18752         *
 * Ni             99      0.10894              0.30118              0.19015         *
 * Ni            100     -0.01493              0.08255              0.14479         *
 * Ni            101     -0.22877              0.03951             -0.05434         *
 * Ni            102      0.17242             -0.19137              0.03146         *
 * Ni            103      0.08932             -0.08737              0.02523         *
 * Ni            104      0.30316             -0.30266              0.51515         *
 * Ni            105      0.15420             -0.20214              0.06254         *
 * Ni            106     -0.23556              0.02450              0.09169         *
 * Ni            107     -0.01677             -0.05532             -0.02828         *
 * Ni            108     -0.09476              0.12114             -0.15432         *
 * Ni            109      0.13856              0.03847              0.11709         *
 * Ni            110     -0.15767             -0.11196              0.15996         *
 * Ni            111     -0.22319             -0.05784             -0.14364         *
 * Ni            112      0.02228             -0.11596             -0.05019         *
 * Ni            113      0.23742              0.14396              0.02238         *
 * Ni            114     -0.00523              0.12021             -0.03346         *
 * Ni            115     -0.04044              0.07668              0.15104         *
 * Ni            116      0.12960              0.26537              0.18747         *
 * Ni            117      0.07215              0.05517              0.12669         *
 * Ni            118      0.13951              0.03060              0.15068         *
 * Ni            119      0.16513              0.09499              0.03058         *
 * Ni            120     -0.02247              0.05863             -0.26983         *
 * Ni            121     -0.11310             -0.09394              0.25078         *
 * Ni            122     -0.16967             -0.03553              0.13995         *
 * Ni            123     -0.00613              0.17664             -0.15489         *
 * Ni            124      0.08382              0.05838             -0.04491         *
 * Ni            125      0.22360              0.30996             -0.08476         *
 * Ni            126     -0.23566             -0.11307              0.08837         *
 * Ni            127     -0.08794             -0.05584             -0.11648         *
 * Ni            128     -0.19628             -0.13123              0.02499         *
 * Ni            129      0.05318              0.15498             -0.16730         *
 * Ni            130     -0.03653             -0.28229             -0.13622         *
 * Ni            131     -0.01653             -0.04896              0.02849         *
 * Ni            132      0.20409             -0.05448              0.05137         *
 * Ni            133      0.13887             -0.02060             -0.01893         *
 * Ni            134      0.13122              0.01563             -0.05968         *
 * Ni            135     -0.19382              0.04561              0.27024         *
 * Ni            136     -0.17550              0.06862             -0.13632         *
 * Ni            137     -0.35232             -0.35259             -0.02100         *
 * Ni            138      0.14855              0.13291              0.04367         *
 * Ni            139     -0.14732              0.00428             -0.06451         *
 * Ni            140      0.16158             -0.06343             -0.02279         *
 * Ni            141     -0.14249              0.06348              0.20100         *
 * Ni            142      0.16156              0.00409             -0.11582         *
 * Ni            143      0.31521              0.13450             -0.22622         *
 * Ni            144     -0.08985             -0.02126              0.03940         *
 * Ni            145      0.17821              0.04367             -0.14096         *
 * Ni            146     -0.32342             -0.11149              0.09201         *
 * Ni            147      0.00295             -0.02949              0.07902         *
 * Ni            148      0.32851              0.10324             -0.03443         *
 * Ni            149      0.18005             -0.06790             -0.20085         *
 * Ni            150     -0.06304             -0.08640              0.18696         *
 * Ni            151     -0.27143             -0.06038             -0.04870         *
 * Ni            152     -0.01038             -0.02332             -0.12534         *
 * Ni            153     -0.00499              0.12579             -0.08171         *
 * Ni            154      0.20588              0.25572              0.02280         *
 * Ni            155      0.00109             -0.12261              0.07165         *
 * Ni            156     -0.06592             -0.15247             -0.28468         *
 * Ni            157      0.24621              0.06539             -0.22882         *
 * Ni            158     -0.17861              0.09905              0.21685         *
 * Ni            159     -0.14139             -0.02856              0.08707         *
 * Ni            160     -0.21038              0.24088              0.28512         *
 * Ni            161     -0.03749              0.08611              0.08343         *
 * Ni            162     -0.01413             -0.12059              0.08951         *
 * Ni            163      0.00019              0.09553              0.23510         *
 * Ni            164      0.30453             -0.11343             -0.06004         *
 * Ni            165     -0.30247              0.05774              0.16277         *
 * Ni            166     -0.10036             -0.00557             -0.01598         *
 * Ni            167     -0.07725             -0.15361              0.13316         *
 * Ni            168     -0.08399              0.18491              0.26331         *
 * Ni            169     -0.00444             -0.11487             -0.03069         *
 * Ni            170      0.04246              0.30008             -0.04323         *
 * Ni            171      0.29230              0.10445              0.31738         *
 * Ni            172      0.28138             -0.13939              0.05253         *
 * Ni            173     -0.29760              0.27683             -0.07533         *
 * Ni            174     -0.00545             -0.00082              0.16345         *
 * Ni            175      0.04103             -0.08096             -0.04813         *
 * Ni            176      0.01434              0.03094              0.25617         *
 * Ni            177     -0.07156             -0.13876             -0.15876         *
 * Ni            178      0.04618              0.07535             -0.19100         *
 * Ni            179      0.36529             -0.09761             -0.03924         *
 * Ni            180      0.08462             -0.08790             -0.03899         *
 * Ni            181     -0.06594             -0.04355              0.12034         *
 * Ni            182     -0.02643             -0.08619             -0.17163         *
 * Ni            183      0.08777              0.12068              0.36409         *
 * Ni            184     -0.01470              0.06821             -0.03392         *
 * Ni            185      0.24054             -0.02745              0.02390         *
 * Ni            186     -0.08276             -0.29957             -0.13115         *
 * Ni            187     -0.05903             -0.05864             -0.17737         *
 * Ni            188      0.00752              0.14817              0.00706         *
 * Ni            189     -0.04037              0.14273              0.28973         *
 * Ni            190      0.11949             -0.00537             -0.20300         *
 * Ni            191     -0.05922              0.03841             -0.11244         *
 * Ni            192      0.07056              0.03416             -0.18577         *
 *                                                                                  *
 ************************************************************************************
 LBFGS: finished iteration     0 with enthalpy= -2.71385110E+005 eV
  
 +-----------+-----------------+-----------------+------------+-----+ <-- LBFGS
 | Parameter |      value      |    tolerance    |    units   | OK? | <-- LBFGS
 +-----------+-----------------+-----------------+------------+-----+ <-- LBFGS
 |  dE/ion   |   0.000000E+000 |   2.000000E-005 |         eV | No  | <-- LBFGS
 |  |F|max   |   9.340502E-001 |   5.000000E-002 |       eV/A | No  | <-- LBFGS
 |  |dR|max  |   0.000000E+000 |   1.000000E-003 |          A | No  | <-- LBFGS
 +-----------+-----------------+-----------------+------------+-----+ <-- LBFGS
  

================================================================================
 Starting LBFGS iteration          1 ...
================================================================================
  
 +------------+-------------+-------------+-----------------+ <-- min LBFGS
 |    Step    |   lambda    |   F.delta'  |    enthalpy     | <-- min LBFGS
 +------------+-------------+-------------+-----------------+ <-- min LBFGS
 |  previous  |    0.000000 |    2.068287 |  -271385.110428 | <-- min LBFGS
 +------------+-------------+-------------+-----------------+ <-- min LBFGS
  

--------------------------------------------------------------------------------
 LBFGS: starting iteration         1 with trial guess (lambda=  1.000000)
--------------------------------------------------------------------------------
 
                           -------------------------------
                                     Cell Contents
                           -------------------------------
 
            xxxxxxxxxxxxxxxxxxxxxxxxxxxxxxxxxxxxxxxxxxxxxxxxxxxxxxxxxxxxxxxxx
            x  Element         Atom        Fractional coordinates of atoms  x
            x                 Number           u          v          w      x
            x---------------------------------------------------------------x
            x  Al                1         0.569901   0.062267   0.563396   x
            x  Al                2         0.817890   0.062696   0.562290   x
            x  Al                3         0.571324   0.313710   0.563733   x
            x  Al                4         0.817802   0.312321   0.562199   x
            x  Al                5         0.575955   0.564333   0.557983   x
            x  Al                6         0.819499   0.562719   0.561218   x
            x  Al                7         0.570735   0.811328   0.562571   x
            x  Al                8         0.819309   0.813303   0.561434   x
            x  Al                9         0.568272   0.060826   0.810143   x
            x  Al               10         0.817107   0.062677   0.812104   x
            x  Al               11         0.568512   0.314858   0.809501   x
            x  Al               12         0.817205   0.312547   0.812245   x
            x  Al               13         0.576737   0.564920   0.811926   x
            x  Al               14         0.819020   0.562733   0.812278   x
            x  Al               15         0.572331   0.810589   0.807714   x
            x  Al               16         0.818898   0.812970   0.811943   x
            x  Al               17         0.570832   0.061089   0.060985   x
            x  Al               18         0.816549   0.063326   0.061286   x
            x  Al               19         0.569254   0.313890   0.061124   x
            x  Al               20         0.816655   0.311967   0.061316   x
            x  Al               21         0.574423   0.563415   0.065297   x
            x  Al               22         0.818951   0.562267   0.062406   x
            x  Al               23         0.575532   0.811564   0.067248   x
            x  Al               24         0.818844   0.813204   0.062169   x
            x  Al               25         0.570970   0.062741   0.313221   x
            x  Al               26         0.817519   0.063194   0.312041   x
            x  Al               27         0.571119   0.312917   0.313135   x
            x  Al               28         0.817513   0.311864   0.311824   x
            x  Al               29         0.572043   0.563312   0.311936   x
            x  Al               30         0.819639   0.562231   0.311676   x
            x  Al               31         0.571416   0.812036   0.311529   x
            x  Al               32         0.819543   0.813644   0.312284   x
            x  Al               33         0.328379   0.935906   0.433993   x
            x  Al               34         0.056495   0.810532   0.306800   x
            x  Al               35         0.192695   0.943165   0.304557   x
            x  Al               36         0.321603   0.688034   0.438472   x
            x  Al               37         0.192970   0.681567   0.303984   x
            x  Al               38         0.325225   0.322007   0.552538   x
            x  Al               39         0.070588   0.442490   0.428195   x
            x  Al               40         0.198546   0.942164   0.071737   x
            x  Al               41         0.066411   0.559395   0.064451   x
            x  Al               42         0.324796   0.438217   0.188009   x
            x  Al               43         0.192849   0.421117   0.062115   x
            x  Al               44         0.330301   0.185889   0.187305   x
            x  Al               45         0.326212   0.320547   0.329500   x
            x  Al               46         0.190626   0.187955   0.056798   x
            x  Al               47         0.063148   0.189837   0.188452   x
            x  Al               48         0.317447   0.813378   0.810002   x
            x  Al               49         0.439137   0.810935   0.943203   x
            x  Al               50         0.186541   0.807150   0.683218   x
            x  Al               51         0.068642   0.938489   0.940254   x
            x  Al               52         0.433435   0.564342   0.936165   x
            x  Al               53         0.070977   0.699057   0.940645   x
            x  Al               54         0.200524   0.561741   0.930780   x
            x  Al               55         0.325040   0.318969   0.806863   x
            x  Al               56         0.329524   0.182116   0.936812   x
            x  Al               57         0.184642   0.178219   0.810090   x
            x  Al               58         0.186810   0.939830   0.556165   x
            x  Al               59         0.433992   0.565077   0.685691   x
            x  Al               60         0.191603   0.563843   0.684827   x
            x  Al               61         0.187123   0.178787   0.554076   x
            x  Al               62         0.192668   0.183496   0.322275   x
            x  Al               63         0.180569   0.320211   0.680857   x
            x  Ni                1         0.567781   0.187250   0.686912   x
            x  Ni                2         0.693348   0.062090   0.687254   x
            x  Ni                3         0.693808   0.187533   0.562977   x
            x  Ni                4         0.817383   0.187793   0.687547   x
            x  Ni                5         0.941942   0.063068   0.687164   x
            x  Ni                6         0.941956   0.187808   0.562066   x
            x  Ni                7         0.568660   0.443257   0.685710   x
            x  Ni                8         0.692894   0.313662   0.687336   x
            x  Ni                9         0.695484   0.437841   0.561777   x
            x  Ni               10         0.818717   0.437400   0.687121   x
            x  Ni               11         0.942018   0.312477   0.687110   x
            x  Ni               12         0.942306   0.437159   0.561677   x
            x  Ni               13         0.567925   0.684477   0.685180   x
            x  Ni               14         0.696621   0.563572   0.686011   x
            x  Ni               15         0.696086   0.688577   0.560897   x
            x  Ni               16         0.819832   0.688148   0.686532   x
            x  Ni               17         0.942518   0.562346   0.686808   x
            x  Ni               18         0.943113   0.687669   0.561433   x
            x  Ni               19         0.567566   0.936666   0.686103   x
            x  Ni               20         0.694692   0.811909   0.685884   x
            x  Ni               21         0.693642   0.937260   0.561977   x
            x  Ni               22         0.818273   0.937692   0.686895   x
            x  Ni               23         0.942979   0.813012   0.686807   x
            x  Ni               24         0.942736   0.938275   0.561846   x
            x  Ni               25         0.448392   0.187102   0.061131   x
            x  Ni               26         0.691124   0.061795   0.935598   x
            x  Ni               27         0.691817   0.187760   0.811614   x
            x  Ni               28         0.816264   0.187697   0.936597   x
            x  Ni               29         0.941712   0.063190   0.936996   x
            x  Ni               30         0.941686   0.187809   0.812197   x
            x  Ni               31         0.566850   0.442037   0.937059   x
            x  Ni               32         0.690878   0.313362   0.935936   x
            x  Ni               33         0.694162   0.438073   0.811967   x
            x  Ni               34         0.817898   0.437225   0.937133   x
            x  Ni               35         0.941835   0.312390   0.937098   x
            x  Ni               36         0.942285   0.437337   0.812229   x
            x  Ni               37         0.566739   0.687569   0.938329   x
            x  Ni               38         0.694983   0.563726   0.937909   x
            x  Ni               39         0.695979   0.688425   0.811821   x
            x  Ni               40         0.819488   0.688062   0.937361   x
            x  Ni               41         0.942614   0.562265   0.937341   x
            x  Ni               42         0.942916   0.687628   0.812057   x
            x  Ni               43         0.567244   0.933004   0.936652   x
            x  Ni               44         0.693571   0.811714   0.937025   x
            x  Ni               45         0.693367   0.936720   0.811483   x
            x  Ni               46         0.817764   0.937810   0.936687   x
            x  Ni               47         0.942954   0.813083   0.937217   x
            x  Ni               48         0.942287   0.938109   0.812021   x
            x  Ni               49         0.567537   0.188377   0.187374   x
            x  Ni               50         0.692722   0.063158   0.186937   x
            x  Ni               51         0.690888   0.187741   0.060753   x
            x  Ni               52         0.816987   0.187602   0.186306   x
            x  Ni               53         0.942168   0.063460   0.186620   x
            x  Ni               54         0.941687   0.187813   0.061667   x
            x  Ni               55         0.568422   0.437740   0.187638   x
            x  Ni               56         0.692752   0.312280   0.186632   x
            x  Ni               57         0.693875   0.437312   0.062004   x
            x  Ni               58         0.818398   0.436607   0.186780   x
            x  Ni               59         0.941933   0.312154   0.186640   x
            x  Ni               60         0.942224   0.436910   0.062034   x
            x  Ni               61         0.569845   0.686995   0.188810   x
            x  Ni               62         0.695810   0.562337   0.188121   x
            x  Ni               63         0.696121   0.687683   0.062972   x
            x  Ni               64         0.819861   0.687799   0.187434   x
            x  Ni               65         0.942911   0.562031   0.186934   x
            x  Ni               66         0.943095   0.687688   0.062271   x
            x  Ni               67         0.569671   0.937228   0.187916   x
            x  Ni               68         0.696331   0.812937   0.188573   x
            x  Ni               69         0.694468   0.937763   0.061848   x
            x  Ni               70         0.818445   0.938841   0.187167   x
            x  Ni               71         0.943056   0.813296   0.186865   x
            x  Ni               72         0.942155   0.938490   0.061922   x
            x  Ni               73         0.569491   0.186860   0.439075   x
            x  Ni               74         0.693328   0.062196   0.437981   x
            x  Ni               75         0.693075   0.187568   0.312292   x
            x  Ni               76         0.817603   0.187486   0.437212   x
            x  Ni               77         0.942441   0.063265   0.436824   x
            x  Ni               78         0.941942   0.187763   0.311710   x
            x  Ni               79         0.571420   0.439682   0.436669   x
            x  Ni               80         0.693336   0.312429   0.437615   x
            x  Ni               81         0.694614   0.437119   0.311677   x
            x  Ni               82         0.818691   0.436829   0.436511   x
            x  Ni               83         0.942192   0.312217   0.436774   x
            x  Ni               84         0.942549   0.436751   0.311647   x
            x  Ni               85         0.569238   0.688188   0.435713   x
            x  Ni               86         0.696756   0.563312   0.435494   x
            x  Ni               87         0.695926   0.688093   0.312177   x
            x  Ni               88         0.819901   0.688445   0.436379   x
            x  Ni               89         0.942782   0.562218   0.436477   x
            x  Ni               90         0.943468   0.687706   0.311732   x
            x  Ni               91         0.567681   0.936373   0.437708   x
[...]
            Ni 13  -- Ni 39                  0.02         0.00          2.58819
            Ni 1   -- Ni 8                   0.03        -0.00          2.58823
            Ni 105 -- Ni 131                 0.02        -0.00          2.58831
            Ni 71  -- Ni 96                  0.01        -0.00          2.58836
            Ni 110 -- Ni 136                 0.07        -0.00          2.58850
             Al 21 -- Ni 152                 0.17         0.00          2.58853
            Ni 124 -- Ni 147                 0.01         0.00          2.58853
             Al 51 -- Ni 142                 0.18        -0.00          2.58857
            Ni 127 -- Ni 134                 0.05         0.00          2.58859
            Ni 29  -- Ni 48                  0.02        -0.00          2.58870
            Ni 152 -- Ni 160                 0.04         0.00          2.58882
             Al 11 -- Ni 127                 0.18        -0.00          2.58887
            Ni 152 -- Ni 153                 0.12         0.00          2.58897
            Ni 131 -- Ni 133                 0.03         0.00          2.58920
            Ni 1   -- Ni 107                 0.02         0.00          2.58924
            Ni 129 -- Ni 132                 0.13        -0.00          2.58935
            Ni 157 -- Ni 188                 0.05         0.00          2.58948
             Al 21 -- Ni 37                  0.20        -0.00          2.58969
             Al 40 -- Ni 163                 0.17         0.00          2.59007
            Ni 113 -- Ni 140                 0.02        -0.00          2.59034
             Al 34 -- Ni 162                 0.16        -0.00          2.59048
            Ni 25  -- Ni 146                -0.01         0.00          2.59049
             Al 15 -- Ni 37                  0.20        -0.00          2.59071
            Ni 100 -- Ni 127                 0.11         0.00          2.59087
            Ni 37  -- Ni 38                  0.08         0.00          2.59094
            Ni 67  -- Ni 165                 0.02         0.00          2.59130
            Ni 31  -- Ni 32                  0.06         0.00          2.59138
            Ni 13  -- Ni 120                 0.04         0.00          2.59157
             Al 21 -- Ni 159                 0.16         0.00          2.59194
            Ni 100 -- Ni 107                 0.06        -0.00          2.59195
            Ni 155 -- Ni 156                 0.07         0.00          2.59257
            Ni 145 -- Ni 170                 0.01         0.00          2.59295
            Ni 142 -- Ni 143                 0.05         0.00          2.59301
             Al 48 -- Ni 141                 0.18        -0.00          2.59303
            Ni 100 -- Ni 180                 0.14        -0.00          2.59321
            Ni 159 -- Ni 160                 0.10         0.00          2.59322
             Al 48 -- Ni 120                 0.20         0.00          2.59325
            Ni 34  -- Ni 41                  0.07        -0.00          2.59328
            Ni 68  -- Ni 69                  0.02         0.00          2.59334
            Ni 1   -- Ni 101                 0.03         0.00          2.59345
             Al 14 -- Ni 16                  0.19         0.00          2.59347
             Al 17 -- Ni 43                  0.20         0.00          2.59357
             Al 15 -- Ni 139                 0.18         0.00          2.59371
            Ni 177 -- Ni 178                 0.14        -0.00          2.59408
            Ni 98  -- Ni 100                 0.06        -0.00          2.59409
            Ni 121 -- Ni 191                 0.00         0.00          2.59410
             Al 40 -- Ni 141                 0.18         0.00          2.59411
            Ni 49  -- Ni 151                 0.08         0.00          2.59423
             Al 40 -- Ni 145                 0.18         0.00          2.59426
             Al 60 -- Ni 140                 0.17        -0.00          2.59426
            Ni 19  -- Ni 101                 0.04         0.00          2.59428
             Al 49 -- Ni 144                 0.16         0.00          2.59437
             Al 63 -- Ni 100                 0.20        -0.00          2.59477
             Al 39 -- Ni 178                 0.22        -0.00          2.59495
             Al 15 -- Ni 44                  0.20        -0.00          2.59532
            Ni 147 -- Ni 170                -0.03         0.00          2.59533
            Ni 41  -- Ni 66                 -0.03        -0.00          2.59534
             Al 5  -- Ni 115                 0.16        -0.00          2.59565
             Al 51 -- Ni 124                 0.20        -0.00          2.59606
            Ni 35  -- Ni 129                 0.10         0.00          2.59629
             Al 43 -- Ni 150                 0.18         0.00          2.59666
            Ni 123 -- Ni 124                 0.01        -0.00          2.59745
             Al 40 -- Ni 124                 0.19         0.00          2.59786
             Al 23 -- Ni 37                  0.19         0.00          2.59803
            Ni 158 -- Ni 181                -0.02         0.00          2.59848
            Ni 170 -- Ni 171                -0.02         0.00          2.59861
            Ni 116 -- Ni 118                 0.02        -0.00          2.59875
            Ni 41  -- Ni 42                  0.03        -0.00          2.59877
            Ni 117 -- Ni 191                 0.09         0.00          2.59886
            Ni 104 -- Ni 105                 0.06        -0.00          2.59901
            Ni 117 -- Ni 122                 0.04        -0.00          2.59944
             Al 9  -- Ni 127                 0.19        -0.00          2.59958
            Ni 126 -- Ni 128                 0.09         0.00          2.59965
            Ni 105 -- Ni 109                 0.00        -0.00          2.59970
            Ni 101 -- Ni 144                 0.10         0.00          2.59978
            Ni 178 -- Ni 179                 0.06        -0.00          2.59985
            Ni 60  -- Ni 65                  0.01         0.00          2.59992
             Al 27 -- Ni 73                  0.19         0.00          2.60010
            Ni 37  -- Ni 39                  0.02         0.00          2.60014
            Ni 155 -- Ni 157                 0.08         0.00          2.60067
             Al 40 -- Ni 170                 0.18         0.00          2.60070
            Ni 25  -- Ni 135                -0.01         0.00          2.60074
             Al 46 -- Ni 153                 0.14        -0.00          2.60124
             Al 9  -- Ni 144                 0.19         0.00          2.60133
            Ni 98  -- Ni 99                 -0.00        -0.00          2.60136
            Ni 102 -- Ni 106                 0.06        -0.00          2.60157
             Al 36 -- Ni 190                 0.17        -0.00          2.60224
            Ni 112 -- Ni 122                 0.11         0.00          2.60308
             Al 17 -- Ni 134                 0.18         0.00          2.60336
            Ni 102 -- Ni 131                -0.04        -0.00          2.60382
            Ni 95  -- Ni 96                  0.01        -0.00          2.60395
             Al 3  -- Ni 180                 0.16        -0.00          2.60423
            Ni 113 -- Ni 139                 0.01         0.00          2.60458
            Ni 138 -- Ni 160                 0.06         0.00          2.60482
            Ni 53  -- Ni 54                  0.00         0.00          2.60501
             Al 51 -- Ni 163                 0.17        -0.00          2.60574
            Ni 54  -- Ni 59                  0.00         0.00          2.60584
            Ni 71  -- Ni 90                  0.02        -0.00          2.60710
             Al 41 -- Ni 129                 0.19         0.00          2.60723
            Ni 156 -- Ni 167                 0.12         0.00          2.60736
            Ni 53  -- Ni 78                  0.00         0.00          2.60779
            Ni 104 -- Ni 109                -0.00        -0.00          2.60783
             Al 3  -- Ni 108                 0.16        -0.00          2.60784
            Ni 13  -- Ni 20                  0.05        -0.00          2.60785
             Al 19 -- Ni 151                 0.19        -0.00          2.60806
            Ni 161 -- Ni 162                -0.00         0.00          2.60815
            Ni 158 -- Ni 160                 0.11         0.00          2.60816
            Ni 59  -- Ni 78                 -0.01         0.00          2.60817
             Al 59 -- Ni 13                  0.17         0.00          2.60828
             Al 17 -- Ni 49                  0.18         0.00          2.60898
            Ni 105 -- Ni 132                 0.04        -0.00          2.60963
             Al 38 -- Ni 107                 0.16        -0.00          2.60983
            Ni 110 -- Ni 118                 0.05        -0.00          2.61035
             Al 19 -- Ni 134                 0.19         0.00          2.61049
            Ni 47  -- Ni 163                 0.05        -0.00          2.61103
            Ni 42  -- Ni 47                 -0.01        -0.00          2.61118
            Ni 110 -- Ni 112                 0.05        -0.00          2.61191
            Ni 25  -- Ni 151                -0.00         0.00          2.61225
            Ni 7   -- Ni 8                   0.05        -0.00          2.61252
             Al 19 -- Ni 31                  0.19         0.00          2.61268
             Al 53 -- Ni 137                 0.18         0.00          2.61277
            Ni 26  -- Ni 43                  0.07         0.00          2.61281
            Ni 65  -- Ni 66                  0.02         0.00          2.61308
             Al 50 -- Ni 117                 0.15        -0.00          2.61336
             Al 34 -- Ni 122                 0.16         0.00          2.61371
            Ni 151 -- Ni 152                 0.03         0.00          2.61493
             Al 58 -- Ni 119                 0.17        -0.00          2.61533
             Al 9  -- Ni 43                  0.19        -0.00          2.61538
             Al 58 -- Ni 122                 0.18        -0.00          2.61584
             Al 58 -- Ni 117                 0.15        -0.00          2.61588
             Al 40 -- Ni 143                 0.18        -0.00          2.61603
            Ni 170 -- Ni 175                -0.03         0.00          2.61613
             Al 11 -- Ni 31                  0.18        -0.00          2.61690
            Ni 121 -- Ni 173                 0.01         0.00          2.61816
            Ni 99  -- Ni 169                 0.01        -0.00          2.61819
             Al 36 -- Ni 184                 0.20         0.00          2.61849
             Al 50 -- Ni 142                 0.15        -0.00          2.61875
            Ni 106 -- Ni 133                 0.01         0.00          2.61967
             Al 35 -- Ni 122                 0.17         0.00          2.62054
            Ni 65  -- Ni 148                 0.05         0.00          2.62144
            Ni 146 -- Ni 174                 0.01         0.00          2.62259
            Ni 114 -- Ni 135                 0.06         0.00          2.62309
             Al 59 -- Ni 7                   0.16         0.00          2.62540
            Ni 172 -- Ni 182                -0.02         0.00          2.62691
            Ni 25  -- Ni 126                -0.01         0.00          2.62692
            Ni 173 -- Ni 192                -0.00         0.00          2.62715
            Ni 140 -- Ni 141                 0.07        -0.00          2.62729
            Ni 136 -- Ni 141                 0.01        -0.00          2.62781
            Ni 130 -- Ni 153                -0.01         0.00          2.62968
             Al 23 -- Ni 166                 0.14         0.00          2.63009
             Al 49 -- Ni 139                 0.16         0.00          2.63040
            Ni 143 -- Ni 167                 0.01         0.00          2.63076
            Ni 115 -- Ni 117                 0.09         0.00          2.63151
            Ni 107 -- Ni 114                 0.06         0.00          2.63164
             Al 56 -- Ni 130                 0.15         0.00          2.63333
            Ni 114 -- Ni 133                 0.02         0.00          2.63373
             Al 47 -- Ni 150                 0.18         0.00          2.63374
            Ni 150 -- Ni 153                -0.03         0.00          2.63448
            Ni 124 -- Ni 125                 0.03        -0.00          2.63577
            Ni 172 -- Ni 177                -0.08        -0.00          2.63684
             Al 36 -- Ni 122                 0.17         0.00          2.63715
            Ni 154 -- Ni 155                 0.06         0.00          2.63755
            Ni 156 -- Ni 157                 0.12         0.00          2.63862
            Ni 102 -- Ni 114                -0.01         0.00          2.63892
            Ni 169 -- Ni 172                 0.02        -0.00          2.63956
            Ni 162 -- Ni 164                 0.01         0.00          2.63958
             Al 52 -- Ni 31                  0.15         0.00          2.63985
             Al 37 -- Ni 190                 0.15        -0.00          2.63994
             Al 61 -- Ni 104                 0.15         0.00          2.64004
            Ni 111 -- Ni 115                 0.02        -0.00          2.64055
            Ni 106 -- Ni 138                 0.00         0.00          2.64097
             Al 43 -- Ni 155                 0.18         0.00          2.64142
             Al 38 -- Ni 180                 0.14        -0.00          2.64173
             Al 46 -- Ni 147                 0.12        -0.00          2.64273
             Al 48 -- Al 50                  0.25        -0.00          2.64334
             Al 48 -- Al 49                  0.27         0.00          2.64352
             Al 35 -- Ni 189                 0.15         0.00          2.64397
            Ni 127 -- Ni 135                -0.04         0.00          2.64605
            Ni 100 -- Ni 103                 0.10        -0.00          2.64661
             Al 23 -- Ni 159                 0.13         0.00          2.64727
            Ni 156 -- Ni 162                 0.12         0.00          2.64769
             Al 45 -- Ni 174                 0.15        -0.00          2.65105
             Al 56 -- Ni 124                 0.15         0.00          2.65263
             Al 50 -- Al 58                  0.24        -0.00          2.65375
            Ni 155 -- Ni 188                 0.01         0.00          2.65380
             Al 37 -- Ni 122                 0.16         0.00          2.65493
             Al 35 -- Ni 190                 0.13        -0.00          2.65784
             Al 52 -- Ni 37                  0.15        -0.00          2.65805
             Al 42 -- Ni 153                 0.18         0.00          2.65904
            Ni 148 -- Ni 150                 0.08         0.00          2.65915
             Al 33 -- Ni 122                 0.15         0.00          2.65916
             Al 13 -- Ni 139                 0.14         0.00          2.66105
             Al 50 -- Ni 119                 0.13        -0.00          2.66253
            Ni 111 -- Ni 113                 0.03        -0.00          2.66479
            Ni 126 -- Ni 127                 0.01         0.00          2.66534
             Al 23 -- Al 49                  0.24         0.00          2.66969
            Ni 129 -- Ni 130                 0.08         0.00          2.67114
            Ni 100 -- Ni 128                 0.08        -0.00          2.67680
             Al 42 -- Al 43                  0.23         0.00          2.68215
            Ni 161 -- Ni 170                 0.04         0.00          2.68685
             Al 43 -- Ni 160                 0.14        -0.00          2.69019
             Al 46 -- Al 56                  0.23         0.00          2.69300
            Ni 100 -- Ni 101                 0.07         0.00          2.69604
            Ni 168 -- Ni 169                 0.00        -0.00          2.70202
            Ni 130 -- Ni 149                 0.01         0.00          2.70478
             Al 38 -- Ni 100                 0.14         0.00          2.70520
             Al 42 -- Al 45                  0.25         0.00          2.71010
             Al 45 -- Ni 151                 0.12        -0.00          2.71417
             Al 46 -- Al 47                  0.21         0.00          2.72098
             Al 36 -- Al 37                  0.21        -0.00          2.72140
            Ni 149 -- Ni 150                -0.00         0.00          2.72613
             Al 34 -- Al 35                  0.19         0.00          2.73245
            Ni 164 -- Ni 170                 0.03         0.00          2.73701
             Al 33 -- Al 58                  0.20        -0.00          2.73890
             Al 33 -- Al 35                  0.20         0.00          2.74077
             Al 45 -- Ni 150                 0.10         0.00          2.74495
             Al 42 -- Ni 150                 0.13         0.00          2.74761
             Al 34 -- Al 37                  0.19         0.00          2.75087
             Al 5  -- Al 59                  0.19        -0.00          2.75614
             Al 21 -- Al 52                  0.20         0.00          2.76411
             Al 55 -- Al 56                  0.19         0.00          2.76456
             Al 15 -- Al 49                  0.20         0.00          2.76839
             Al 53 -- Al 54                  0.19        -0.00          2.77278
             Al 57 -- Al 63                  0.16        -0.00          2.77755
             Al 13 -- Al 52                  0.19         0.00          2.77772
             Al 61 -- Al 63                  0.17        -0.00          2.78007
             Al 40 -- Al 51                  0.20         0.00          2.78291
             Al 47 -- Al 62                  0.16         0.00          2.78820
             Al 55 -- Al 63                  0.16        -0.00          2.78880
             Al 44 -- Al 46                  0.16         0.00          2.78931
             Al 43 -- Al 54                  0.17         0.00          2.78981
             Al 13 -- Al 59                  0.18         0.00          2.79621
             Al 41 -- Al 43                  0.15         0.00          2.79680
             Al 45 -- Al 62                  0.14        -0.00          2.80233
             Al 41 -- Al 53                  0.17        -0.00          2.80444
             Al 56 -- Al 57                  0.17         0.00          2.82200
             Al 38 -- Al 63                  0.12        -0.00          2.84070
             Al 41 -- Al 54                  0.13        -0.00          2.85040
             Al 44 -- Al 62                  0.15         0.00          2.85228
             Al 38 -- Al 61                  0.11        -0.00          2.88444
             Al 55 -- Al 57                  0.10        -0.00          2.93982
             Al 44 -- Al 45                  0.10         0.00          2.96057
================================================================================
 

Writing analysis data to castep.castep_bin

Writing model to castep.check
 
 A BibTeX formatted list of references used in this run has been written to 
 castep.bib
 
Initialisation time =     13.84 s
Calculation time    =  16954.35 s
Finalisation time   =     15.00 s
Total time          =  16983.19 s
Peak Memory Use     = 2359552 kB
  
Overall parallel efficiency rating: Good (72%)                                  
  
Data was distributed by:-
G-vector (48-way); efficiency rating: Good (72%)                                
