 +-------------------------------------------------+
 |                                                 |
 |      CCC   AA    SSS  TTTTT  EEEEE  PPPP        |
 |     C     A  A  S       T    E      P   P       |
 |     C     AAAA   SS     T    EEE    PPPP        |
 |     C     A  A     S    T    E      P           |
 |      CCC  A  A  SSS     T    EEEEE  P           |
 |                                                 |
 +-------------------------------------------------+
 |                                                 |
 | Welcome to Academic Release CASTEP version 22.11|
 | Ab Initio Total Energy Program                  |
 |                                                 |
 | Authors:                                        |
 | M. Segall, M. Probert, C. Pickard, P. Hasnip,   |
 | S. Clark, K. Refson, J. R. Yates, M. Payne      |
 |                                                 |
 | Contributors:                                   |
 | P. Lindan, P. Haynes, J. White, V. Milman,      |
 | N. Govind, M. Gibson, P. Tulip, V. Cocula,      |
 | B. Montanari, D. Quigley, M. Glover,            |
 | L. Bernasconi, A. Perlov, M. Plummer,           |
 | E. McNellis, J. Meyer, J. Gale, D. Jochym       |
 | J. Aarons, B. Walker, R. Gillen, D. Jones       |
 | T. Green, I. J. Bush, C. J. Armstrong,          |
 | E. J. Higgins, E. L. Brown, M. S. McFly,        |
 | J. Wilkins, B-C. Shih, P. J. P. Byrne,          |
 | R. J. Maurer, J. C. Womack, J. Dziedzic,        |
 | A. Bartok-Partay, L. LeBlanc, T. K. Stenczel,   |
 | J. Kermode, S. Sturniolo, B. Shi, B. Durham     |
 | M. Evans, M. J. Smith                           |
 |                                                 |
 | Copyright (c) 2000 - 2021                       |
 |                                                 |
 |     Distributed under license from Cambridge    |
 |     Enterprise for academic use only.           |
 |                                                 |
 | Please cite                                     |
 |                                                 |
 |     "First principles methods using CASTEP"     |
 |                                                 |
 |         Zeitschrift fuer Kristallographie       |
 |           220(5-6) pp. 567-570 (2005)           |
 |                                                 |
 | S. J. Clark, M. D. Segall, C. J. Pickard,       |
 | P. J. Hasnip, M. J. Probert, K. Refson,         |
 | M. C. Payne                                     |
 |                                                 |
 |       in all publications arising from          |
 |              your use of CASTEP                 |
 |                                                 |
 +-------------------------------------------------+
 |                                                 |
 |              http://www.castep.org              |
 |                                                 |
 +-------------------------------------------------+
 
 
 
 Compiled for linux_x86_64_ifort on Wed, 18 Jan 2023 15:42:19 +0000
 from code version b807d1bba+  Castep221_branch  Wed Sep 14 11:18:35 2022 +0100
 Compiler: Intel Fortran 19.0.5.281; Optimisation: fast
 MATHLIBS: Intel MKL(2019.0.5) (LAPACK version 3.7.0)
 FFT Lib : mkl
 Fundamental constants values: CODATA 2014
 
 Run started: Wed, 26 Apr 2023 13:16:49 +0100
 
 Atomic calculation performed for Al: 1s2 2s2 2p6 3s2 3p1
 
 Converged in 52 iterations to an ae energy of -6606.982 eV
 
   ============================================================                
   | Pseudopotential Report - Date of generation 26-04-2023   |                
   ------------------------------------------------------------                
   | Element: Al Ionic charge:  3.00 Level of theory: RPBE    |                
   | Atomic Solver: Koelling-Harmon                           |                
   |                                                          |                
   |               Reference Electronic Structure             |                
   |         Orbital         Occupation         Energy        |                
   |            3s              2.000           -0.284        |                
   |            3p              1.000           -0.100        |                
   |                                                          |                
   |                 Pseudopotential Definition               |                
   |        Beta     l      e      Rc     scheme   norm       |                
   |          1      0   -0.284   2.192     qc      0         |                
   |          2      0    0.250   2.192     qc      0         |                
   |          3      1   -0.100   2.192     qc      0         |                
   |          4      1    0.250   2.192     qc      0         |                
   |          5      2    0.000   2.000     qc      0         |                
   |          6      2    0.250   2.000     qc      0         |                
   |         loc     3    0.000   2.192     pn      0         |                
   |                                                          |                
   | Augmentation charge Rinner = 1.398                       |                
   | Partial core correction Rc = 1.398                       |                
   ------------------------------------------------------------                
   | "3|2.2|2.2|1.4|4|5|5|30:31:32U2U2"                       |                
   ------------------------------------------------------------                
   |      Author: Chris J. Pickard, Cambridge University      |                
   ============================================================                
 
 Atomic calculation performed for Ni: 1s2 2s2 2p6 3s2 3p6 3d8 4s2
 
 Converged in 109 iterations to an ae energy of -41381.414 eV
 
   ============================================================                
   | Pseudopotential Report - Date of generation 26-04-2023   |                
   ------------------------------------------------------------                
   | Element: Ni Ionic charge: 10.00 Level of theory: RPBE    |                
   | Atomic Solver: Koelling-Harmon                           |                
   |                                                          |                
   |               Reference Electronic Structure             |                
   |         Orbital         Occupation         Energy        |                
   |            3d              8.000           -0.324        |                
   |            4s              2.000           -0.204        |                
   |                                                          |                
   |                 Pseudopotential Definition               |                
   |        Beta     l      e      Rc     scheme   norm       |                
   |          1      0   -0.204   2.401     qc      0         |                
   |          2      0    0.250   2.401     qc      0         |                
   |          3      1    0.000   2.401     qc      0         |                
   |          4      1    0.250   2.401     qc      0         |                
   |          5      2   -0.324   1.999     qc      0         |                
   |          6      2    0.250   1.999     qc      0         |                
   |         loc     3    0.000   2.401     pn      0         |                
   |                                                          |                
   | Augmentation charge Rinner = 1.001                       |                
   | Partial core correction Rc = 1.001                       |                
   ------------------------------------------------------------                
   | "3|2.4|2.4|1.0|8|9|10|40:41:32U2U2(qc=5.5)"              |                
   ------------------------------------------------------------                
   |      Author: Chris J. Pickard, Cambridge University      |                
   ============================================================                
 
 Pseudo atomic calculation performed for Al 3s2 3p1
 
 Converged in 13 iterations to a total energy of -107.6593 eV
 
 Pseudo atomic calculation performed for Ni 3d8 4s2
 
 Converged in 41 iterations to a total energy of -1369.7890 eV
 Calculation parallelised over 128 processes.
 Data is distributed by G-vector(128-way)

 ************************************ Title ************************************
 

 ***************************** General Parameters ******************************
  
 output verbosity                               : normal  (1)
 write checkpoint data to                       : castep.check
 type of calculation                            : geometry optimization
 stress calculation                             : off
 density difference calculation                 : off
 electron localisation func (ELF) calculation   : off
 Hirshfeld analysis                             : off
 polarisation (Berry phase) analysis            : off
 molecular orbital projected DOS                : off
 deltaSCF calculation                           : off
 unlimited duration calculation
 timing information                             : on
 memory usage estimate                          : on
 write extra output files                       : on
 write final potential to formatted file        : off
 write final density to formatted file          : off
 write BibTeX reference list                    : on
 write OTFG pseudopotential files               : on
 write electrostatic potential file             : on
 write bands file                               : on
 checkpoint writing                             : both castep_bin and check files
  
 output         length unit                     : A
 output           mass unit                     : amu
 output           time unit                     : ps
 output         charge unit                     : e
 output           spin unit                     : hbar/2
 output         energy unit                     : eV
 output          force unit                     : eV/A
 output       velocity unit                     : A/ps
 output       pressure unit                     : GPa
 output     inv_length unit                     : 1/A
 output      frequency unit                     : cm-1
 output force constant unit                     : eV/A**2
 output         volume unit                     : A**3
 output   IR intensity unit                     : (D/A)**2/amu
 output         dipole unit                     : D
 output         efield unit                     : eV/A/e
 output        entropy unit                     : J/mol/K
 output    efield chi2 unit                     : pm/V
  
 wavefunctions paging                           : none
 random number generator seed                   : randomised (131651304)
 data distribution                              : optimal for this architecture
 optimization strategy                          : maximize speed(+++)

 *********************** Exchange-Correlation Parameters ***********************
  
 using functional                               : revised Perdew Burke Ernzerhof
 relativistic treatment                         : Koelling-Harmon
 DFT+D: Semi-empirical dispersion correction    : off

 ************************* Pseudopotential Parameters **************************
  
 pseudopotential representation                 : reciprocal space
 <beta|phi> representation                      : reciprocal space
 spin-orbit coupling                            : off

 **************************** Basis Set Parameters *****************************
  
 plane wave basis set cut-off                   :   900.0000   eV
 size of standard grid                          :     1.7500
 size of   fine   gmax                          :    26.8966   1/A
 finite basis set correction                    : none

 **************************** Electronic Parameters ****************************
  
 number of  electrons                           :  2109.    
 net charge of system                           :  0.000    
 net spin   of system                           :  1.000    
 number of  up  spins                           :  1055.    
 number of down spins                           :  1054.    
 treating system as spin-polarized
 number of bands                                :       1167

 ********************* Electronic Minimization Parameters **********************
  
 Method: Treating system as metallic with density mixing treatment of electrons,
         and number of  SD  steps               :          1
         and number of  CG  steps               :          4
  
 total energy / atom convergence tol.           : 0.1000E-05   eV
 eigen-energy convergence tolerance             : 0.2185E-06   eV
 max force / atom convergence tol.              : ignored
 convergence tolerance window                   :          3   cycles
 max. number of SCF cycles                      :        200
 number of fixed-spin iterations                :         10
 smearing scheme                                : Gaussian
 smearing width                                 : 0.2000       eV
 Fermi energy convergence tolerance             : 0.2721E-13   eV
 periodic dipole correction                     : NONE
 periodically dump wavefunctions to             : castep.wvfn
 dump wavefunctions every                       :          1   SCF cycles

 ************************** Density Mixing Parameters **************************
  
 density-mixing scheme                          : Pulay
 max. length of mixing history                  :         20
 charge density mixing amplitude                : 0.8000    
   spin density mixing amplitude                :  2.000    
 cut-off energy for mixing                      :  900.0       eV

 *********************** Population Analysis Parameters ************************
  
 Population analysis with cutoff                :  3.000       A
 Population analysis output                     : summary and pdos components

 ********************** Geometry Optimization Parameters ***********************
  
 optimization method                            : LBFGS
 max. no. of LBFGS updates                      : unbounded
 variable cell method                           : fixed basis quality
 max. number of steps                           :         30
 estimated bulk modulus                         :  500.0       GPa
 estimated <frequency>                          :  1668.       cm-1
 geom line minimiser                            : on
 with line minimiser tolerance                  :     0.4000
  with spin fully able to relax for all steps
 total energy convergence tolerance             : 0.2000E-04   eV/atom
        max ionic |force| tolerance             : 0.5000E-01   eV/A
 max ionic |displacement| tolerance             : 0.1000E-02   A
   max |stress component| tolerance             : 0.1000       GPa
 convergence tolerance window                   :          2   steps
 backup results every                           :          5   steps
 write geom trajectory file                     : on

 *******************************************************************************
  
 
                           -------------------------------
                                      Unit Cell
                           -------------------------------
        Real Lattice(A)                      Reciprocal Lattice(1/A)
    14.4648280     0.0000000     0.0000000        0.434376773   0.000000000   0.000000000
     0.0000000    14.4648280     0.0000000        0.000000000   0.434376773   0.000000000
     0.0000000     0.0000000    14.4648280        0.000000000   0.000000000   0.434376773
 
                       Lattice parameters(A)       Cell Angles
                    a =     14.464828          alpha =   90.000000
                    b =     14.464828          beta  =   90.000000
                    c =     14.464828          gamma =   90.000000
 
                       Current cell volume =          3026.494030       A**3
                                   density =             4.285146   AMU/A**3
                                           =             7.115653     g/cm^3
 
                           -------------------------------
                                     Cell Contents
                           -------------------------------
                         Total number of ions in cell =  255
                      Total number of species in cell =    2
                        Max number of any one species =  192
 
            xxxxxxxxxxxxxxxxxxxxxxxxxxxxxxxxxxxxxxxxxxxxxxxxxxxxxxxxxxxx
            x  Element    Atom        Fractional coordinates of atoms  x
            x            Number           u          v          w      x
            x----------------------------------------------------------x
            x  Al           1         0.570702   0.307410   0.064457   x 
            x  Al           2         0.818250   0.309207   0.063207   x 
            x  Al           3         0.569893   0.559261   0.065828   x 
            x  Al           4         0.817596   0.558235   0.063646   x 
            x  Al           5         0.575322   0.809632   0.060333   x 
            x  Al           6         0.819102   0.807796   0.062777   x 
            x  Al           7         0.572253   0.058446   0.063459   x 
            x  Al           8         0.819970   0.059145   0.062428   x 
            x  Al           9         0.569617   0.305951   0.312678   x 
            x  Al          10         0.817813   0.308655   0.313929   x 
            x  Al          11         0.573359   0.554870   0.311886   x 
            x  Al          12         0.816697   0.558094   0.313967   x 
            x  Al          13         0.577343   0.814381   0.313134   x 
            x  Al          14         0.819194   0.808324   0.313544   x 
            x  Al          15         0.574363   0.057118   0.309364   x 
            x  Al          16         0.819970   0.058968   0.313352   x 
            x  Al          17         0.570282   0.306329   0.562121   x 
            x  Al          18         0.817080   0.309538   0.563346   x 
            x  Al          19         0.567349   0.559716   0.561500   x 
            x  Al          20         0.816094   0.558296   0.563084   x 
            x  Al          21         0.574659   0.809405   0.566230   x 
            x  Al          22         0.818578   0.807347   0.564014   x 
            x  Al          23         0.577146   0.057423   0.569270   x 
            x  Al          24         0.819628   0.058859   0.564165   x 
            x  Al          25         0.571641   0.308635   0.813981   x 
            x  Al          26         0.817119   0.310218   0.813209   x 
            x  Al          27         0.568939   0.558946   0.814864   x 
            x  Al          28         0.816565   0.557891   0.813041   x 
            x  Al          29         0.570710   0.808499   0.814472   x 
            x  Al          30         0.819229   0.807161   0.813532   x 
            x  Al          31         0.572561   0.057943   0.813100   x 
            x  Al          32         0.820038   0.059088   0.813967   x 
            x  Al          33         0.328670   0.182474   0.934397   x 
            x  Al          34         0.056304   0.057824   0.808038   x 
            x  Al          35         0.192986   0.190296   0.805079   x 
            x  Al          36         0.321479   0.935456   0.939667   x 
            x  Al          37         0.192692   0.929544   0.805047   x 
            x  Al          38         0.318585   0.689958   0.944262   x 
            x  Al          39         0.074765   0.687565   0.929588   x 
            x  Al          40         0.198675   0.188666   0.572707   x 
            x  Al          41         0.067330   0.805446   0.565922   x 
            x  Al          42         0.326112   0.684979   0.688957   x 
            x  Al          43         0.194385   0.667454   0.563661   x 
            x  Al          44         0.337227   0.428730   0.680786   x 
            x  Al          45         0.328539   0.555022   0.819979   x 
            x  Al          46         0.192234   0.432837   0.556877   x 
            x  Al          47         0.063833   0.435384   0.688517   x 
            x  Al          48         0.317527   0.060385   0.312326   x 
            x  Al          49         0.440408   0.057060   0.445061   x 
            x  Al          50         0.185868   0.054895   0.185571   x 
            x  Al          51         0.068535   0.185181   0.441835   x 
            x  Al          52         0.433477   0.814677   0.439787   x 
            x  Al          53         0.070954   0.945105   0.442382   x 
            x  Al          54         0.201476   0.808503   0.432173   x 
            x  Al          55         0.432155   0.677789   0.310309   x 
            x  Al          56         0.334546   0.430836   0.439260   x 
            x  Al          57         0.188515   0.425172   0.313509   x 
            x  Al          58         0.187110   0.186347   0.057686   x 
            x  Al          59         0.434361   0.816938   0.185502   x 
            x  Al          60         0.191726   0.811557   0.187885   x 
            x  Al          61         0.191593   0.426148   0.055738   x 
            x  Al          62         0.193537   0.427297   0.821405   x 
            x  Al          63         0.188917   0.565161   0.184527   x 
            x  Ni           1         0.568087   0.431574   0.187869   x 
            x  Ni           2         0.694192   0.307830   0.188610   x 
            x  Ni           3         0.693654   0.433452   0.064132   x 
            x  Ni           4         0.817445   0.433620   0.189082   x 
            x  Ni           5         0.942286   0.309350   0.188487   x 
            x  Ni           6         0.942030   0.434079   0.063295   x 
            x  Ni           7         0.564545   0.687875   0.191545   x 
            x  Ni           8         0.693039   0.558928   0.188577   x 
            x  Ni           9         0.693547   0.683082   0.064425   x 
            x  Ni          10         0.818579   0.683029   0.188574   x 
            x  Ni          11         0.941939   0.558341   0.188683   x 
            x  Ni          12         0.942521   0.682757   0.063178   x 
            x  Ni          13         0.569277   0.932615   0.186033   x 
            x  Ni          14         0.695888   0.808931   0.187453   x 
            x  Ni          15         0.696479   0.934210   0.062167   x 
            x  Ni          16         0.820196   0.933578   0.187583   x 
            x  Ni          17         0.942731   0.807883   0.188137   x 
            x  Ni          18         0.943297   0.933127   0.062735   x 
            x  Ni          19         0.569016   0.182489   0.187733   x 
            x  Ni          20         0.696295   0.058330   0.186919   x 
            x  Ni          21         0.694849   0.183633   0.062920   x 
            x  Ni          22         0.819213   0.183990   0.188055   x 
            x  Ni          23         0.943206   0.058863   0.187974   x 
            x  Ni          24         0.943041   0.184550   0.062960   x 
            x  Ni          25         0.562017   0.432034   0.441269   x 
            x  Ni          26         0.691781   0.307447   0.438021   x 
            x  Ni          27         0.692017   0.431822   0.314578   x 
            x  Ni          28         0.816727   0.433646   0.438716   x 
            x  Ni          29         0.942215   0.309351   0.438822   x 
            x  Ni          30         0.941761   0.433963   0.313818   x 
            x  Ni          31         0.563826   0.688617   0.433545   x 
            x  Ni          32         0.690690   0.558874   0.438123   x 
            x  Ni          33         0.693695   0.683934   0.313263   x 
            x  Ni          34         0.817661   0.682950   0.438627   x 
            x  Ni          35         0.941801   0.558436   0.438692   x 
            x  Ni          36         0.942241   0.682950   0.313690   x 
            x  Ni          37         0.568149   0.934985   0.440397   x 
            x  Ni          38         0.694882   0.809438   0.439103   x 
            x  Ni          39         0.697456   0.934903   0.313139   x 
            x  Ni          40         0.820072   0.933476   0.439053   x 
            x  Ni          41         0.942646   0.807808   0.438861   x 
            x  Ni          42         0.942994   0.933263   0.313434   x 
            x  Ni          43         0.568970   0.177778   0.438264   x 
            x  Ni          44         0.695436   0.057652   0.438948   x 
            x  Ni          45         0.694970   0.182749   0.313159   x 
            x  Ni          46         0.818729   0.183902   0.438648   x 
            x  Ni          47         0.943254   0.058812   0.438920   x 
            x  Ni          48         0.942753   0.184220   0.313542   x 
            x  Ni          49         0.563636   0.433795   0.683270   x 
            x  Ni          50         0.692611   0.309592   0.688188   x 
            x  Ni          51         0.690948   0.433681   0.562329   x 
            x  Ni          52         0.816569   0.434354   0.687920   x 
            x  Ni          53         0.942363   0.309921   0.688348   x 
            x  Ni          54         0.941930   0.434234   0.563496   x 
            x  Ni          55         0.567432   0.684527   0.689579   x 
            x  Ni          56         0.690525   0.558325   0.687812   x 
            x  Ni          57         0.691781   0.682956   0.562486   x 
            x  Ni          58         0.817364   0.682048   0.688188   x 
            x  Ni          59         0.942037   0.558360   0.688184   x 
            x  Ni          60         0.942252   0.682709   0.563626   x 
            x  Ni          61         0.570517   0.932726   0.690703   x 
            x  Ni          62         0.695261   0.807628   0.689939   x 
            x  Ni          63         0.696988   0.933153   0.564827   x 
            x  Ni          64         0.820095   0.932779   0.689375   x 
            x  Ni          65         0.942849   0.807336   0.688580   x 
            x  Ni          66         0.943116   0.933036   0.564032   x 
            x  Ni          67         0.571303   0.182270   0.689641   x 
            x  Ni          68         0.697561   0.058304   0.690550   x 
            x  Ni          69         0.695491   0.183728   0.563789   x 
            x  Ni          70         0.818903   0.185012   0.688968   x 
            x  Ni          71         0.943179   0.058927   0.688744   x 
            x  Ni          72         0.942578   0.184492   0.563788   x 
            x  Ni          73         0.568011   0.433792   0.941143   x 
            x  Ni          74         0.693264   0.308976   0.938845   x 
            x  Ni          75         0.690441   0.434402   0.812610   x 
            x  Ni          76         0.817126   0.434068   0.937968   x 
            x  Ni          77         0.942560   0.309802   0.937907   x 
            x  Ni          78         0.942135   0.434283   0.813012   x 
            x  Ni          79         0.568194   0.684292   0.939315   x 
            x  Ni          80         0.692465   0.558432   0.939279   x 
            x  Ni          81         0.693192   0.682533   0.813751   x 
            x  Ni          82         0.818073   0.682285   0.938416   x 
            x  Ni          83         0.942224   0.558268   0.938113   x 
            x  Ni          84         0.942407   0.682371   0.813194   x 
            x  Ni          85         0.569605   0.934267   0.937536   x 
            x  Ni          86         0.695700   0.808112   0.937580   x 
            x  Ni          87         0.696007   0.933039   0.814102   x 
            x  Ni          88         0.819999   0.933418   0.937898   x 
            x  Ni          89         0.942905   0.807523   0.938079   x 
            x  Ni          90         0.943647   0.933001   0.813401   x 
            x  Ni          91         0.568745   0.182417   0.938493   x 
            x  Ni          92         0.695336   0.058890   0.937958   x 
            x  Ni          93         0.694901   0.184229   0.814143   x 
            x  Ni          94         0.819138   0.184664   0.938112   x 
            x  Ni          95         0.943696   0.058985   0.937921   x 
            x  Ni          96         0.943078   0.184932   0.813247   x 
            x  Ni          97         0.071320   0.430803   0.184377   x 
            x  Ni          98         0.191722   0.305940   0.185080   x 
            x  Ni          99         0.064559   0.305685   0.059082   x 
            x  Ni         100         0.312300   0.432125   0.185409   x 
            x  Ni         101         0.442915   0.305778   0.188488   x 
            x  Ni         102         0.317117   0.557899   0.062235   x 
            x  Ni         103         0.320131   0.304298   0.061903   x 
            x  Ni         104         0.065618   0.560643   0.056920   x 
            x  Ni         105         0.065443   0.687318   0.187110   x 
            x  Ni         106         0.314959   0.684744   0.183920   x 
            x  Ni         107         0.442374   0.558216   0.187169   x 
            x  Ni         108         0.444618   0.686763   0.066197   x 
            x  Ni         109         0.190070   0.686588   0.061256   x 
            x  Ni         110         0.065981   0.934455   0.186194   x 
            x  Ni         111         0.316484   0.813052   0.062780   x 
            x  Ni         112         0.189887   0.936592   0.058183   x 
            x  Ni         113         0.313684   0.938976   0.185441   x 
            x  Ni         114         0.318274   0.811206   0.310111   x 
            x  Ni         115         0.444850   0.936020   0.062479   x 
            x  Ni         116         0.065547   0.181138   0.184597   x 
            x  Ni         117         0.315619   0.061880   0.059987   x 
            x  Ni         118         0.066721   0.058580   0.056320   x 
            x  Ni         119         0.314686   0.179889   0.186192   x 
            x  Ni         120         0.443284   0.057077   0.187916   x 
            x  Ni         121         0.445096   0.181870   0.063887   x 
            x  Ni         122         0.192979   0.061180   0.928632   x 
            x  Ni         123         0.065424   0.430639   0.438180   x 
            x  Ni         124         0.194670   0.307072   0.439391   x 
            x  Ni         125         0.063988   0.304266   0.312349   x 
            x  Ni         126         0.447660   0.303072   0.436689   x 
            x  Ni         127         0.443911   0.432492   0.309808   x 
            x  Ni         128         0.319994   0.306565   0.312171   x 
            x  Ni         129         0.071866   0.683636   0.440489   x 
            x  Ni         130         0.194036   0.552356   0.434327   x 
            x  Ni         131         0.192451   0.682987   0.311567   x 
            x  Ni         132         0.066935   0.557827   0.311788   x 
            x  Ni         133         0.316436   0.680133   0.438460   x 
            x  Ni         134         0.445799   0.560134   0.434339   x 
            x  Ni         135         0.314495   0.552767   0.309633   x 
            x  Ni         136         0.066980   0.060708   0.313891   x 
            x  Ni         137         0.070340   0.813705   0.316901   x 
            x  Ni         138         0.315039   0.937900   0.440240   x 
            x  Ni         139         0.444063   0.936401   0.314232   x 
            x  Ni         140         0.191265   0.937626   0.313592   x 
            x  Ni         141         0.194727   0.063976   0.441522   x 
            x  Ni         142         0.191127   0.184130   0.311577   x 
            x  Ni         143         0.318000   0.182942   0.439762   x 
            x  Ni         144         0.443766   0.178597   0.313278   x 
            x  Ni         145         0.065299   0.309464   0.564888   x 
            x  Ni         146         0.450595   0.305312   0.686995   x 
            x  Ni         147         0.325652   0.310465   0.561697   x 
            x  Ni         148         0.067109   0.678449   0.688909   x 
            x  Ni         149         0.064722   0.555896   0.564433   x 
            x  Ni         150         0.200300   0.547789   0.692000   x 
            x  Ni         151         0.446825   0.560292   0.688530   x 
            x  Ni         152         0.445066   0.685619   0.560662   x 
            x  Ni         153         0.325760   0.552970   0.562958   x 
            x  Ni         154         0.065140   0.931752   0.686554   x 
            x  Ni         155         0.193447   0.802492   0.684657   x 
            x  Ni         156         0.191680   0.933014   0.565421   x 
            x  Ni         157         0.318341   0.931750   0.688660   x 
            x  Ni         158         0.445861   0.809519   0.686989   x 
            x  Ni         159         0.444348   0.933497   0.565316   x 
            x  Ni         160         0.316075   0.806004   0.563806   x 
            x  Ni         161         0.065561   0.186299   0.686911   x 
            x  Ni         162         0.191402   0.059272   0.691301   x 
            x  Ni         163         0.068544   0.062385   0.566312   x 
            x  Ni         164         0.320948   0.185991   0.690281   x 
            x  Ni         165         0.446311   0.057515   0.687646   x 
            x  Ni         166         0.445753   0.180991   0.564569   x 
            x  Ni         167         0.318087   0.059621   0.568012   x 
            x  Ni         168         0.066464   0.431430   0.935008   x 
            x  Ni         169         0.194923   0.302882   0.935267   x 
            x  Ni         170         0.195578   0.318187   0.687254   x 
            x  Ni         171         0.063930   0.309010   0.808662   x 
            x  Ni         172         0.320752   0.431434   0.939461   x 
            x  Ni         173         0.447876   0.307730   0.939504   x 
            x  Ni         174         0.448078   0.432537   0.814648   x 
            x  Ni         175         0.324246   0.309955   0.812578   x 
            x  Ni         176         0.067218   0.810934   0.058594   x 
            x  Ni         177         0.194464   0.558431   0.937803   x 
            x  Ni         178         0.199947   0.680085   0.810570   x 
            x  Ni         179         0.066470   0.557290   0.812416   x 
            x  Ni         180         0.442670   0.431831   0.065907   x 
            x  Ni         181         0.443716   0.684729   0.816356   x 
            x  Ni         182         0.445395   0.559956   0.943739   x 
            x  Ni         183         0.068186   0.932508   0.930553   x 
            x  Ni         184         0.194828   0.811521   0.934710   x 
            x  Ni         185         0.066734   0.807095   0.808058   x 
            x  Ni         186         0.445034   0.810619   0.940782   x 
            x  Ni         187         0.444842   0.933838   0.813070   x 
            x  Ni         188         0.321268   0.809447   0.813359   x 
            x  Ni         189         0.066450   0.183159   0.930657   x 
            x  Ni         190         0.320346   0.057852   0.811389   x 
            x  Ni         191         0.446351   0.057549   0.937912   x 
            x  Ni         192         0.447083   0.182437   0.811945   x 
            xxxxxxxxxxxxxxxxxxxxxxxxxxxxxxxxxxxxxxxxxxxxxxxxxxxxxxxxxxxx
 
 
                         No user defined ionic velocities
 
                           -------------------------------
                                   Details of Species
                           -------------------------------
 
                               Mass of species in AMU
                                    Al   26.9815400
                                    Ni   58.6934000
 
                          Electric Quadrupole Moment (Barn)
                                    Al    0.1466000 Isotope 27
                                    Ni    0.1620000 Isotope 61
 
                          Files used for pseudopotentials:
                                    Al 3|2.2|2.2|1.4|4|5|5|30:31:32U2U2
                                    Ni 3|2.4|2.4|1.0|8|9|10|40:41:32U2U2(qc=5.5)
 
                           -------------------------------
                              k-Points For BZ Sampling
                           -------------------------------
                       MP grid size for SCF calculation is  1  1  1
                            with an offset of   0.000  0.000  0.000
                       Number of kpoints used =             1
 
                           -------------------------------
                               Symmetry and Constraints
                           -------------------------------
 
                      Maximum deviation from symmetry =  0.00000         ANG
 
                      Number of symmetry operations   =           1
                      Number of ionic constraints     =           3
                      Point group of crystal =     1: C1, 1, 1
                      Space group of crystal =     1: P1, P 1
 
             Set iprint > 1 for details on symmetry rotations/translations
 
                         Centre of mass is constrained
             Set iprint > 1 for details of linear ionic constraints
 
                         Number of cell constraints= 6
                         Cell constraints are:  0 0 0 0 0 0
 
                         External pressure/stress (GPa)
                          0.00000   0.00000   0.00000
                                    0.00000   0.00000
                                              0.00000
 
+---------------- MEMORY AND SCRATCH DISK ESTIMATES PER PROCESS --------------+
|                                                     Memory          Disk    |
| Baseline code, static data and system overhead      861.0 MB         0.0 MB |
| BLAS internal memory storage                          0.0 MB         0.0 MB |
| Model and support data                              349.7 MB         0.0 MB |
| Electronic energy minimisation requirements          97.8 MB         0.0 MB |
| Force calculation requirements                        2.3 MB         0.0 MB |
|                                               ----------------------------- |
| Approx. total storage required per process         1308.5 MB         0.0 MB |
|                                                                             |
| Requirements will fluctuate during execution and may exceed these estimates |
+-----------------------------------------------------------------------------+
Calculating approximate eigenstates for fixed initial Hamiltonian
Cut-off for approx. calculation is  550.359 eV
Resetting cut-off to  900.000 eV
Calculating total energy with cut-off of  900.000 eV.
------------------------------------------------------------------------ <-- SCF
SCF loop      Energy           Fermi           Energy gain       Timer   <-- SCF
                               energy          per atom          (sec)   <-- SCF
------------------------------------------------------------------------ <-- SCF
Initial  -2.71879871E+005  0.00000000E+000                      1484.96  <-- SCF
      1  -2.71333822E+005  3.13383271E+000  -2.14136850E+000    1550.05  <-- SCF
      2  -2.71491200E+005  3.16321310E+000   6.17168658E-001    1618.32  <-- SCF
      3  -2.72650358E+005  8.88032789E+000   4.54571486E+000    1699.05  <-- SCF
      4  -2.72708510E+005  8.89205318E+000   2.28046457E-001    1770.16  <-- SCF
      5  -2.71615515E+005  6.44086291E+000  -4.28625379E+000    1864.71  <-- SCF
      6  -2.71766429E+005  6.43301539E+000   5.91820334E-001    1945.65  <-- SCF
      7  -2.71457382E+005  4.89418770E+000  -1.21194897E+000    2025.95  <-- SCF
      8  -2.71396562E+005  4.43899283E+000  -2.38511640E-001    2110.86  <-- SCF
      9  -2.71388806E+005  4.40224207E+000  -3.04146807E-002    2196.73  <-- SCF
     10  -2.71392122E+005  4.45669392E+000   1.30046049E-002    2265.32  <-- SCF
     11  -2.72023120E+005  5.83171716E+000   2.47450235E+000    2340.80  <-- SCF
     12  -2.71541390E+005  4.79660373E+000  -1.88913799E+000    2438.57  <-- SCF
     13  -2.71438893E+005  4.23891593E+000  -4.01947852E-001    2526.11  <-- SCF
     14  -2.71404835E+005  4.21896329E+000  -1.33560834E-001    2606.87  <-- SCF
     15  -2.71397316E+005  4.30179784E+000  -2.94870815E-002    2684.32  <-- SCF
     16  -2.71393061E+005  4.34700738E+000  -1.66860884E-002    2750.17  <-- SCF
     17  -2.71389012E+005  4.36208576E+000  -1.58771162E-002    2823.10  <-- SCF
     18  -2.71387073E+005  4.35930279E+000  -7.60695039E-003    2897.17  <-- SCF
     19  -2.71385996E+005  4.35099098E+000  -4.22369349E-003    2965.03  <-- SCF
     20  -2.71385943E+005  4.34920564E+000  -2.06953371E-004    3041.59  <-- SCF
     21  -2.71385651E+005  4.36584085E+000  -1.14544954E-003    3119.87  <-- SCF
     22  -2.71385481E+005  4.37989821E+000  -6.66170633E-004    3185.85  <-- SCF
     23  -2.71385283E+005  4.39074697E+000  -7.75295326E-004    3253.26  <-- SCF
     24  -2.71385175E+005  4.38975418E+000  -4.22598810E-004    3324.75  <-- SCF
     25  -2.71385165E+005  4.38503120E+000  -4.24434582E-005    3396.57  <-- SCF
     26  -2.71385126E+005  4.37991433E+000  -1.49651101E-004    3477.20  <-- SCF
     27  -2.71385125E+005  4.37946484E+000  -3.83148277E-006    3549.87  <-- SCF
     28  -2.71385133E+005  4.38074573E+000   2.77959332E-005    3620.66  <-- SCF
     29  -2.71385123E+005  4.38063123E+000  -3.83485000E-005    3686.04  <-- SCF
     30  -2.71385123E+005  4.38035437E+000   4.23075086E-009    3749.26  <-- SCF
     31  -2.71385122E+005  4.37989246E+000  -1.10460836E-006    3800.64  <-- SCF
     32  -2.71385122E+005  4.37979802E+000  -2.89590354E-006    3853.01  <-- SCF
     33  -2.71385122E+005  4.37992919E+000   1.46627273E-007    3898.02  <-- SCF
     34  -2.71385122E+005  4.37997122E+000   1.13427642E-007    3942.25  <-- SCF
------------------------------------------------------------------------ <-- SCF
 
Integrated Spin Density     =    0.629580E-01 hbar/2
Integrated |Spin Density|   =    0.126987     hbar/2
 
Final energy, E             =  -271380.6269170     eV
Final free energy (E-TS)    =  -271385.1217741     eV
(energies not corrected for finite basis set)
 
NB est. 0K energy (E-0.5TS)      =  -271382.8743456     eV
 

Writing analysis data to castep.castep_bin

Writing model to castep.check
 
+---------------- MEMORY AND SCRATCH DISK ESTIMATES PER PROCESS --------------+
|                                                     Memory          Disk    |
| Model and support data                              360.0 MB         0.0 MB |
| Electronic energy minimisation requirements          97.8 MB         0.0 MB |
| Geometry minimisation requirements                  126.4 MB         0.0 MB |
|                                               ----------------------------- |
| Approx. total storage required per process          584.2 MB         0.0 MB |
|                                                                             |
| Requirements will fluctuate during execution and may exceed these estimates |
+-----------------------------------------------------------------------------+
 
 
 ************************************** Forces **************************************
 *                                                                                  *
 *                           Cartesian components (eV/A)                            *
 * -------------------------------------------------------------------------------- *
 *                         x                    y                    z              *
 *                                                                                  *
 * Al              1     -0.11847             -0.00509             -0.02705         *
 * Al              2      0.04693             -0.02502             -0.00527         *
 * Al              3     -0.10621             -0.02110              0.00836         *
 * Al              4      0.08421             -0.01066              0.00535         *
 * Al              5     -0.08433             -0.00006             -0.13422         *
 * Al              6      0.11971              0.02580              0.00504         *
 * Al              7     -0.16027              0.03723             -0.02741         *
 * Al              8      0.06997              0.01710             -0.02559         *
 * Al              9     -0.08870              0.04971             -0.02196         *
 * Al             10      0.06399              0.01200             -0.02609         *
 * Al             11     -0.05702             -0.13393             -0.01561         *
 * Al             12      0.10637              0.00244             -0.01314         *
 * Al             13      0.34919              0.07428             -0.01295         *
 * Al             14      0.05126             -0.04071             -0.03438         *
 * Al             15     -0.02836              0.00885             -0.11290         *
 * Al             16      0.08199              0.02973             -0.02611         *
 * Al             17     -0.20436              0.05584              0.01185         *
 * Al             18      0.05181              0.01605             -0.00698         *
 * Al             19     -0.16436             -0.08060             -0.01377         *
 * Al             20      0.08852              0.00833             -0.01605         *
 * Al             21     -0.02929              0.02714              0.12994         *
 * Al             22      0.11432             -0.00514              0.00065         *
 * Al             23      0.01075              0.00683              0.11793         *
 * Al             24      0.02607             -0.00074             -0.01305         *
 * Al             25     -0.12396             -0.05820              0.01614         *
 * Al             26      0.00645             -0.02417              0.01286         *
 * Al             27     -0.12118             -0.00833              0.02648         *
 * Al             28      0.07269              0.02579              0.00668         *
 * Al             29     -0.15278              0.05041              0.00966         *
 * Al             30      0.05691              0.00480              0.01670         *
 * Al             31     -0.18815              0.02268              0.01416         *
 * Al             32      0.09110             -0.02666              0.03250         *
 * Al             33      0.13661              0.10233              0.12301         *
 * Al             34      0.30919              0.16214              0.29248         *
 * Al             35     -0.03422             -0.00746             -0.07477         *
 * Al             36      0.16444              0.04973              0.21329         *
 * Al             37     -0.04982             -0.29139             -0.04856         *
 * Al             38      0.04933              0.06901              0.19078         *
 * Al             39     -0.56811             -0.28575              0.53393         *
 * Al             40      0.15020             -0.17336             -0.03403         *
 * Al             41     -0.76204             -0.03306              0.60114         *
 * Al             42      0.21543              0.29832             -0.07180         *
 * Al             43     -0.07448             -0.17745             -0.05852         *
 * Al             44      0.20710             -0.15930             -0.22127         *
 * Al             45     -0.04141              0.00674              0.15148         *
 * Al             46     -0.04902              0.09300             -0.12771         *
 * Al             47     -0.62964             -0.08498              0.03442         *
 * Al             48     -0.24111             -0.06962             -0.02813         *
 * Al             49      0.01757              0.16368              0.13462         *
 * Al             50     -0.29575              0.05054             -0.04576         *
 * Al             51     -0.52185             -0.08909             -0.67172         *
 * Al             52     -0.12719              0.06204              0.20177         *
 * Al             53     -0.60676             -0.02678             -0.64732         *
 * Al             54      0.09642             -0.06213             -0.16950         *
 * Al             55     -0.18156             -0.19818             -0.04080         *
 * Al             56      0.24060              0.00524             -0.06571         *
 * Al             57     -0.20311             -0.10945             -0.11840         *
 * Al             58     -0.08632              0.03185              0.13326         *
 * Al             59     -0.00630              0.09017             -0.27361         *
 * Al             60     -0.19239             -0.03221             -0.14408         *
 * Al             61      0.01033              0.04251              0.00935         *
 * Al             62     -0.15664             -0.01859              0.26331         *
 * Al             63     -0.03803              0.11240             -0.00682         *
 * Ni              1     -0.00346              0.05033             -0.04645         *
 * Ni              2      0.00669             -0.00519              0.01444         *
 * Ni              3      0.02517              0.01903              0.01704         *
 * Ni              4      0.09569             -0.01158             -0.00175         *
 * Ni              5      0.18537             -0.03362             -0.05021         *
 * Ni              6      0.16416              0.04384             -0.05399         *
 * Ni              7      0.11967              0.20434              0.30759         *
 * Ni              8      0.02758             -0.01301              0.01558         *
 * Ni              9      0.03868              0.00372             -0.02344         *
 * Ni             10     -0.00987              0.00273              0.02361         *
 * Ni             11      0.37635             -0.05831             -0.06602         *
 * Ni             12      0.22313              0.09953             -0.03248         *
 * Ni             13      0.10062             -0.15385              0.18050         *
 * Ni             14     -0.06033             -0.01231              0.00384         *
 * Ni             15     -0.09147             -0.02437              0.03470         *
 * Ni             16     -0.02323              0.00200             -0.01416         *
 * Ni             17      0.17759              0.11679              0.01015         *
 * Ni             18      0.14790             -0.00486             -0.15194         *
 * Ni             19     -0.00076             -0.00535              0.08519         *
 * Ni             20      0.05351              0.00874              0.00587         *
 * Ni             21     -0.00880             -0.00432             -0.00931         *
 * Ni             22      0.02625              0.00556             -0.02299         *
 * Ni             23      0.20554             -0.00651             -0.04582         *
 * Ni             24      0.06331             -0.13228             -0.13584         *
 * Ni             25      0.22724              0.04963             -0.20925         *
 * Ni             26      0.07628              0.05970              0.02690         *
 * Ni             27      0.07917              0.00013             -0.03199         *
 * Ni             28      0.03277              0.01645             -0.05849         *
 * Ni             29      0.11062              0.06278             -0.00269         *
 * Ni             30      0.26014             -0.06318             -0.11326         *
 * Ni             31      0.14238              0.20987             -0.26404         *
 * Ni             32      0.00331             -0.03230              0.03605         *
 * Ni             33     -0.05321              0.02511              0.00644         *
 * Ni             34     -0.03434             -0.06989             -0.02449         *
 * Ni             35      0.24015             -0.00589             -0.00831         *
 * Ni             36      0.31219              0.09467              0.05464         *
 * Ni             37      0.20937             -0.05130             -0.07123         *
 * Ni             38      0.02670             -0.02795             -0.00105         *
 * Ni             39     -0.07598              0.00039              0.02291         *
 * Ni             40     -0.01782             -0.04022             -0.02274         *
 * Ni             41      0.41130              0.00720             -0.02512         *
 * Ni             42      0.26897              0.06579             -0.05641         *
 * Ni             43      0.08963             -0.04600              0.03055         *
 * Ni             44      0.09354             -0.00710             -0.00988         *
 * Ni             45     -0.03354             -0.01167              0.02659         *
 * Ni             46      0.02169              0.06569             -0.01109         *
 * Ni             47     -0.07969              0.14779              0.10422         *
 * Ni             48     -0.01094             -0.11507             -0.09705         *
 * Ni             49      0.20620             -0.05618              0.12862         *
 * Ni             50      0.00375             -0.02517             -0.02918         *
 * Ni             51     -0.09246              0.01249             -0.00900         *
 * Ni             52      0.08398             -0.01329              0.01139         *
 * Ni             53     -0.08413             -0.22694             -0.08172         *
 * Ni             54     -0.14830             -0.05775             -0.21708         *
 * Ni             55      0.09431              0.00267             -0.15668         *
 * Ni             56      0.02034              0.02627             -0.05063         *
 * Ni             57      0.02120              0.02228              0.01307         *
 * Ni             58     -0.00494              0.02291             -0.02231         *
 * Ni             59     -0.03835              0.20623              0.00066         *
 * Ni             60      0.11770             -0.12940             -0.04927         *
 * Ni             61      0.09850              0.05429             -0.16272         *
 * Ni             62     -0.00687             -0.00988              0.00457         *
 * Ni             63     -0.11315              0.00046             -0.05025         *
 * Ni             64     -0.03751              0.01125              0.01501         *
 * Ni             65      0.02151             -0.11455              0.09545         *
 * Ni             66      0.14895              0.02789             -0.04041         *
 * Ni             67      0.08475              0.00063             -0.14646         *
 * Ni             68     -0.00621             -0.00472             -0.00474         *
 * Ni             69     -0.01857             -0.03933             -0.02109         *
 * Ni             70      0.00364             -0.03396              0.00235         *
 * Ni             71     -0.22667              0.04851             -0.50036         *
 * Ni             72     -0.07664             -0.03677              0.11486         *
 * Ni             73      0.10162             -0.00666              0.05964         *
 * Ni             74      0.02751             -0.00300             -0.00315         *
 * Ni             75      0.09764             -0.00883              0.02701         *
 * Ni             76     -0.00444             -0.02877              0.03993         *
 * Ni             77      0.09152             -0.06310             -0.12930         *
 * Ni             78     -0.12936              0.00922              0.18485         *
 * Ni             79      0.11062             -0.03663              0.12896         *
 * Ni             80      0.03476              0.03178              0.00806         *
 * Ni             81      0.00912              0.02420             -0.00259         *
 * Ni             82      0.00030             -0.00773             -0.00559         *
 * Ni             83      0.11247             -0.05107             -0.11967         *
 * Ni             84      0.00854             -0.03163             -0.13942         *
 * Ni             85      0.11973             -0.00875              0.04567         *
 * Ni             86     -0.00204             -0.00366             -0.01285         *
 * Ni             87     -0.01253             -0.01135             -0.00533         *
 * Ni             88     -0.05474              0.02741              0.01935         *
 * Ni             89      0.14271              0.12006             -0.15582         *
 * Ni             90     -0.23418             -0.34995             -0.13144         *
 * Ni             91      0.12747              0.05852             -0.00877         *
 * Ni             92      0.00621             -0.03100              0.01199         *
 * Ni             93     -0.00634             -0.00302             -0.03060         *
 * Ni             94      0.01323              0.01390              0.01820         *
 * Ni             95     -0.11115             -0.07178              0.09418         *
 * Ni             96     -0.34689              0.26495             -0.13193         *
 * Ni             97     -0.27135              0.33550              0.07221         *
 * Ni             98      0.01432             -0.17710              0.17183         *
 * Ni             99      0.01098              0.29250              0.14223         *
 * Ni            100      0.22826              0.05864              0.12033         *
 * Ni            101     -0.20700              0.02987             -0.06734         *
 * Ni            102      0.03243             -0.10392              0.18234         *
 * Ni            103      0.09107              0.02391              0.06313         *
 * Ni            104      0.08043             -0.25513              0.44935         *
 * Ni            105     -0.06932             -0.17842              0.04087         *
 * Ni            106      0.32252             -0.05919              0.05485         *
 * Ni            107     -0.18548             -0.16206              0.00321         *
 * Ni            108     -0.07094             -0.00192              0.00481         *
 * Ni            109      0.01368             -0.00115             -0.04017         *
 * Ni            110     -0.16411             -0.17217              0.15405         *
 * Ni            111     -0.22199             -0.05188             -0.05988         *
 * Ni            112      0.03572             -0.14359             -0.04376         *
 * Ni            113      0.26125              0.13571              0.07171         *
 * Ni            114      0.01570             -0.02235              0.00890         *
 * Ni            115     -0.05961              0.01404              0.14006         *
 * Ni            116      0.08865              0.23388              0.17918         *
 * Ni            117      0.07338              0.01918              0.12829         *
 * Ni            118      0.11340             -0.00432              0.13307         *
 * Ni            119      0.16211              0.09475              0.02893         *
 * Ni            120     -0.02816              0.06372             -0.25609         *
 * Ni            121     -0.11934             -0.06364              0.24340         *
 * Ni            122     -0.17119             -0.05848              0.13473         *
 * Ni            123     -0.08474              0.15131             -0.14762         *
 * Ni            124      0.09928             -0.00475             -0.02508         *
 * Ni            125      0.16328              0.29643             -0.10163         *
 * Ni            126     -0.27505             -0.24410              0.06184         *
 * Ni            127     -0.05006             -0.05107             -0.11376         *
 * Ni            128     -0.17857             -0.07982              0.00715         *
 * Ni            129     -0.03718              0.15741             -0.11134         *
 * Ni            130      0.04697             -0.06490              0.00527         *
 * Ni            131      0.03303              0.00561              0.09899         *
 * Ni            132      0.09241             -0.02387              0.04580         *
 * Ni            133      0.12316             -0.12544             -0.15443         *
 * Ni            134     -0.07785              0.11616              0.19481         *
 * Ni            135     -0.18503              0.05383              0.09138         *
 * Ni            136     -0.18982              0.06410             -0.14051         *
 * Ni            137     -0.34724             -0.39885             -0.02348         *
 * Ni            138      0.12048              0.08998             -0.02233         *
 * Ni            139     -0.12795             -0.03088             -0.08203         *
 * Ni            140      0.12566             -0.02042             -0.00456         *
 * Ni            141     -0.13645              0.08379              0.20051         *
 * Ni            142      0.17679              0.01820             -0.11437         *
 * Ni            143      0.32987              0.19821             -0.22949         *
 * Ni            144     -0.09593             -0.05296              0.01250         *
 * Ni            145      0.17393              0.04419             -0.11026         *
 * Ni            146     -0.35638             -0.22691              0.20770         *
 * Ni            147     -0.04633             -0.07540              0.05602         *
 * Ni            148      0.22245              0.10810             -0.03391         *
 * Ni            149      0.20386             -0.06077             -0.25149         *
 * Ni            150      0.02330             -0.07627              0.23458         *
 * Ni            151     -0.31602              0.06455              0.12977         *
 * Ni            152      0.03749             -0.14369             -0.04353         *
 * Ni            153     -0.06652              0.17120             -0.22191         *
 * Ni            154      0.19352              0.21395              0.02276         *
 * Ni            155     -0.01037             -0.12805              0.07370         *
 * Ni            156     -0.04943             -0.12843             -0.28916         *
 * Ni            157      0.25197              0.05504             -0.25571         *
 * Ni            158     -0.17816              0.11291              0.24160         *
 * Ni            159     -0.15435             -0.05206              0.11515         *
 * Ni            160     -0.25249              0.15982              0.21376         *
 * Ni            161     -0.02449              0.06497              0.10909         *
 * Ni            162     -0.00862             -0.12858              0.08001         *
 * Ni            163      0.00442              0.06015              0.25429         *
 * Ni            164      0.32875             -0.09745             -0.08531         *
 * Ni            165     -0.32872              0.04461              0.17291         *
 * Ni            166     -0.10789              0.12420             -0.01552         *
 * Ni            167     -0.05585             -0.15680              0.09759         *
 * Ni            168     -0.24670              0.15740              0.24812         *
 * Ni            169     -0.02696             -0.12509             -0.05752         *
 * Ni            170      0.06812              0.28834             -0.03171         *
 * Ni            171      0.25390              0.11872              0.32609         *
 * Ni            172      0.25956             -0.14577              0.00068         *
 * Ni            173     -0.26761              0.26736             -0.07367         *
 * Ni            174     -0.06115             -0.00118              0.01776         *
 * Ni            175      0.03157             -0.06905             -0.02309         *
 * Ni            176     -0.02055             -0.06136              0.21681         *
 * Ni            177      0.05984             -0.01417             -0.17830         *
 * Ni            178      0.07334              0.08890             -0.22588         *
 * Ni            179      0.29001             -0.07783              0.06170         *
 * Ni            180     -0.06984              0.02686             -0.11747         *
 * Ni            181     -0.09647             -0.01931              0.06507         *
 * Ni            182     -0.17392             -0.17177             -0.10052         *
 * Ni            183      0.03193              0.10046              0.35110         *
 * Ni            184     -0.15326              0.15938              0.01012         *
 * Ni            185      0.11397             -0.06101              0.00941         *
 * Ni            186     -0.00381             -0.09847             -0.13989         *
 * Ni            187     -0.06815             -0.10494             -0.19077         *
 * Ni            188      0.04943              0.18102             -0.06845         *
 * Ni            189     -0.08537              0.09731              0.28012         *
 * Ni            190      0.13522             -0.01311             -0.20426         *
 * Ni            191     -0.05793              0.04093             -0.11873         *
 * Ni            192      0.09199              0.00052             -0.13365         *
 *                                                                                  *
 ************************************************************************************
 LBFGS: finished iteration     0 with enthalpy= -2.71385122E+005 eV
  
 +-----------+-----------------+-----------------+------------+-----+ <-- LBFGS
 | Parameter |      value      |    tolerance    |    units   | OK? | <-- LBFGS
 +-----------+-----------------+-----------------+------------+-----+ <-- LBFGS
 |  dE/ion   |   0.000000E+000 |   2.000000E-005 |         eV | No  | <-- LBFGS
 |  |F|max   |   9.711673E-001 |   5.000000E-002 |       eV/A | No  | <-- LBFGS
 |  |dR|max  |   0.000000E+000 |   1.000000E-003 |          A | No  | <-- LBFGS
 +-----------+-----------------+-----------------+------------+-----+ <-- LBFGS
  

================================================================================
 Starting LBFGS iteration          1 ...
================================================================================
  
 +------------+-------------+-------------+-----------------+ <-- min LBFGS
 |    Step    |   lambda    |   F.delta'  |    enthalpy     | <-- min LBFGS
 +------------+-------------+-------------+-----------------+ <-- min LBFGS
 |  previous  |    0.000000 |    2.080446 |  -271385.121774 | <-- min LBFGS
 +------------+-------------+-------------+-----------------+ <-- min LBFGS
  

--------------------------------------------------------------------------------
 LBFGS: starting iteration         1 with trial guess (lambda=  1.000000)
--------------------------------------------------------------------------------
 
                           -------------------------------
                                     Cell Contents
                           -------------------------------
 
            xxxxxxxxxxxxxxxxxxxxxxxxxxxxxxxxxxxxxxxxxxxxxxxxxxxxxxxxxxxxxxxxx
            x  Element         Atom        Fractional coordinates of atoms  x
            x                 Number           u          v          w      x
            x---------------------------------------------------------------x
            x  Al                1         0.570686   0.307410   0.064454   x
            x  Al                2         0.818256   0.309203   0.063206   x
            x  Al                3         0.569879   0.559258   0.065830   x
            x  Al                4         0.817607   0.558234   0.063646   x
            x  Al                5         0.575311   0.809632   0.060315   x
            x  Al                6         0.819118   0.807800   0.062777   x
            x  Al                7         0.572232   0.058451   0.063456   x
            x  Al                8         0.819979   0.059147   0.062425   x
            x  Al                9         0.569605   0.305958   0.312675   x
            x  Al               10         0.817822   0.308657   0.313925   x
            x  Al               11         0.573351   0.554852   0.311884   x
            x  Al               12         0.816711   0.558095   0.313965   x
            x  Al               13         0.577389   0.814390   0.313132   x
            x  Al               14         0.819201   0.808318   0.313540   x
            x  Al               15         0.574359   0.057120   0.309349   x
            x  Al               16         0.819981   0.058972   0.313348   x
            x  Al               17         0.570255   0.306336   0.562123   x
            x  Al               18         0.817086   0.309540   0.563345   x
            x  Al               19         0.567327   0.559705   0.561499   x
            x  Al               20         0.816105   0.558297   0.563082   x
            x  Al               21         0.574655   0.809408   0.566247   x
            x  Al               22         0.818593   0.807346   0.564014   x
            x  Al               23         0.577147   0.057424   0.569285   x
            x  Al               24         0.819632   0.058859   0.564164   x
            x  Al               25         0.571625   0.308627   0.813983   x
            x  Al               26         0.817120   0.310214   0.813211   x
            x  Al               27         0.568923   0.558945   0.814867   x
            x  Al               28         0.816575   0.557895   0.813042   x
            x  Al               29         0.570690   0.808505   0.814473   x
            x  Al               30         0.819236   0.807161   0.813534   x
            x  Al               31         0.572536   0.057946   0.813102   x
            x  Al               32         0.820050   0.059085   0.813971   x
            x  Al               33         0.328688   0.182488   0.934413   x
            x  Al               34         0.056345   0.057845   0.808077   x
            x  Al               35         0.192981   0.190295   0.805069   x
            x  Al               36         0.321501   0.935463   0.939695   x
            x  Al               37         0.192685   0.929505   0.805041   x
            x  Al               38         0.318591   0.689968   0.944287   x
            x  Al               39         0.074689   0.687527   0.929659   x
            x  Al               40         0.198694   0.188643   0.572703   x
            x  Al               41         0.067229   0.805442   0.566002   x
            x  Al               42         0.326141   0.685018   0.688947   x
            x  Al               43         0.194375   0.667431   0.563653   x
            x  Al               44         0.337254   0.428709   0.680756   x
            x  Al               45         0.328534   0.555022   0.819999   x
            x  Al               46         0.192227   0.432849   0.556860   x
            x  Al               47         0.063749   0.435373   0.688522   x
            x  Al               48         0.317495   0.060376   0.312322   x
            x  Al               49         0.440411   0.057081   0.445079   x
            x  Al               50         0.185829   0.054901   0.185565   x
            x  Al               51         0.068466   0.185169   0.441746   x
            x  Al               52         0.433460   0.814685   0.439814   x
            x  Al               53         0.070873   0.945102   0.442296   x
            x  Al               54         0.201489   0.808495   0.432150   x
            x  Al               55         0.432131   0.677763   0.310304   x
            x  Al               56         0.334578   0.430837   0.439252   x
            x  Al               57         0.188488   0.425158   0.313493   x
            x  Al               58         0.187098   0.186351   0.057704   x
            x  Al               59         0.434360   0.816950   0.185466   x
            x  Al               60         0.191700   0.811553   0.187866   x
            x  Al               61         0.191594   0.426154   0.055739   x
            x  Al               62         0.193517   0.427295   0.821440   x
            x  Al               63         0.188912   0.565176   0.184526   x
            x  Ni                1         0.568087   0.431581   0.187863   x
            x  Ni                2         0.694193   0.307829   0.188612   x
            x  Ni                3         0.693657   0.433455   0.064134   x
            x  Ni                4         0.817458   0.433619   0.189082   x
            x  Ni                5         0.942311   0.309346   0.188481   x
            x  Ni                6         0.942051   0.434085   0.063288   x
            x  Ni                7         0.564561   0.687903   0.191586   x
            x  Ni                8         0.693042   0.558926   0.188579   x
            x  Ni                9         0.693552   0.683083   0.064422   x
            x  Ni               10         0.818578   0.683029   0.188577   x
            x  Ni               11         0.941989   0.558333   0.188674   x
            x  Ni               12         0.942551   0.682770   0.063174   x
            x  Ni               13         0.569290   0.932595   0.186057   x
            x  Ni               14         0.695880   0.808929   0.187454   x
            x  Ni               15         0.696467   0.934206   0.062171   x
            x  Ni               16         0.820192   0.933579   0.187581   x
            x  Ni               17         0.942755   0.807899   0.188138   x
            x  Ni               18         0.943316   0.933126   0.062715   x
            x  Ni               19         0.569016   0.182488   0.187744   x
            x  Ni               20         0.696302   0.058331   0.186919   x
            x  Ni               21         0.694848   0.183633   0.062919   x
            x  Ni               22         0.819217   0.183990   0.188052   x
            x  Ni               23         0.943233   0.058862   0.187968   x
            x  Ni               24         0.943049   0.184533   0.062942   x
            x  Ni               25         0.562047   0.432041   0.441242   x
            x  Ni               26         0.691791   0.307455   0.438024   x
            x  Ni               27         0.692028   0.431822   0.314574   x
            x  Ni               28         0.816732   0.433648   0.438708   x
            x  Ni               29         0.942230   0.309360   0.438822   x
            x  Ni               30         0.941796   0.433955   0.313803   x
            x  Ni               31         0.563845   0.688645   0.433510   x
            x  Ni               32         0.690691   0.558870   0.438128   x
            x  Ni               33         0.693688   0.683937   0.313264   x
            x  Ni               34         0.817656   0.682941   0.438624   x
            x  Ni               35         0.941833   0.558435   0.438691   x
            x  Ni               36         0.942282   0.682963   0.313697   x
            x  Ni               37         0.568177   0.934978   0.440388   x
            x  Ni               38         0.694886   0.809435   0.439103   x
            x  Ni               39         0.697445   0.934904   0.313142   x
            x  Ni               40         0.820070   0.933470   0.439050   x
            x  Ni               41         0.942701   0.807808   0.438858   x
            x  Ni               42         0.943029   0.933272   0.313426   x
            x  Ni               43         0.568982   0.177772   0.438268   x
            x  Ni               44         0.695449   0.057651   0.438947   x
            x  Ni               45         0.694966   0.182747   0.313162   x
            x  Ni               46         0.818732   0.183911   0.438647   x
            x  Ni               47         0.943244   0.058831   0.438934   x
            x  Ni               48         0.942751   0.184205   0.313529   x
            x  Ni               49         0.563663   0.433788   0.683288   x
            x  Ni               50         0.692612   0.309588   0.688184   x
            x  Ni               51         0.690935   0.433683   0.562328   x
            x  Ni               52         0.816580   0.434352   0.687922   x
            x  Ni               53         0.942352   0.309891   0.688337   x
            x  Ni               54         0.941910   0.434226   0.563467   x
            x  Ni               55         0.567445   0.684527   0.689558   x
            x  Ni               56         0.690528   0.558329   0.687805   x
            x  Ni               57         0.691784   0.682959   0.562488   x
            x  Ni               58         0.817364   0.682051   0.688185   x
            x  Ni               59         0.942032   0.558388   0.688184   x
            x  Ni               60         0.942268   0.682692   0.563619   x
            x  Ni               61         0.570530   0.932733   0.690681   x
            x  Ni               62         0.695260   0.807626   0.689940   x
            x  Ni               63         0.696973   0.933154   0.564820   x
            x  Ni               64         0.820090   0.932780   0.689377   x
            x  Ni               65         0.942852   0.807321   0.688593   x
            x  Ni               66         0.943136   0.933040   0.564027   x
            x  Ni               67         0.571315   0.182270   0.689622   x
            x  Ni               68         0.697560   0.058303   0.690549   x
            x  Ni               69         0.695489   0.183723   0.563786   x
            x  Ni               70         0.818903   0.185008   0.688969   x
            x  Ni               71         0.943149   0.058934   0.688678   x
            x  Ni               72         0.942568   0.184487   0.563803   x
            x  Ni               73         0.568024   0.433791   0.941151   x
            x  Ni               74         0.693268   0.308976   0.938844   x
            x  Ni               75         0.690454   0.434401   0.812614   x
            x  Ni               76         0.817125   0.434064   0.937974   x
            x  Ni               77         0.942572   0.309794   0.937890   x
            x  Ni               78         0.942118   0.434284   0.813037   x
            x  Ni               79         0.568209   0.684287   0.939333   x
            x  Ni               80         0.692469   0.558436   0.939280   x
            x  Ni               81         0.693193   0.682536   0.813750   x
            x  Ni               82         0.818073   0.682284   0.938415   x
            x  Ni               83         0.942239   0.558261   0.938097   x
            x  Ni               84         0.942409   0.682367   0.813175   x
            x  Ni               85         0.569621   0.934266   0.937542   x
            x  Ni               86         0.695699   0.808112   0.937579   x
            x  Ni               87         0.696006   0.933037   0.814101   x
[...]
            Ni 14  -- Ni 39                  0.02         0.00          2.58842
            Ni 43  -- Ni 144                 0.01         0.00          2.58848
            Ni 25  -- Ni 32                  0.03         0.00          2.58852
            Ni 105 -- Ni 131                 0.02        -0.00          2.58861
             Al 61 -- Ni 102                 0.16        -0.00          2.58868
            Ni 114 -- Ni 140                 0.05         0.00          2.58891
             Al 5  -- Ni 108                 0.16         0.00          2.58894
             Al 40 -- Ni 124                 0.20         0.00          2.58902
             Al 11 -- Ni 7                   0.20         0.00          2.58918
             Al 15 -- Ni 44                  0.20        -0.00          2.58925
            Ni 36  -- Ni 129                 0.11         0.00          2.58938
            Ni 28  -- Ni 51                  0.04         0.00          2.58958
             Al 40 -- Ni 145                 0.17         0.00          2.58959
            Ni 110 -- Ni 136                 0.06        -0.00          2.58973
            Ni 142 -- Ni 143                 0.05        -0.00          2.59028
             Al 14 -- Ni 16                  0.19         0.00          2.59054
            Ni 12  -- Ni 89                  0.03        -0.00          2.59072
            Ni 130 -- Ni 131                 0.12         0.00          2.59100
             Al 60 -- Ni 112                 0.17        -0.00          2.59133
             Al 48 -- Ni 141                 0.18        -0.00          2.59153
            Ni 71  -- Ni 96                  0.01         0.00          2.59165
            Ni 104 -- Ni 177                 0.05        -0.00          2.59167
            Ni 133 -- Ni 135                 0.03         0.00          2.59177
            Ni 37  -- Ni 38                  0.07         0.00          2.59192
            Ni 67  -- Ni 165                 0.02         0.00          2.59199
            Ni 110 -- Ni 112                 0.05        -0.00          2.59203
             Al 61 -- Ni 97                  0.18         0.00          2.59224
            Ni 128 -- Ni 144                 0.14        -0.00          2.59258
            Ni 90  -- Ni 95                  0.01        -0.00          2.59268
            Ni 183 -- Ni 185                 0.07        -0.00          2.59335
            Ni 169 -- Ni 171                -0.00        -0.00          2.59344
            Ni 13  -- Ni 120                 0.04         0.00          2.59352
             Al 40 -- Ni 163                 0.16         0.00          2.59354
            Ni 101 -- Ni 144                 0.09         0.00          2.59354
            Ni 174 -- Ni 182                 0.00         0.00          2.59357
            Ni 34  -- Ni 41                  0.06         0.00          2.59429
             Al 27 -- Ni 49                  0.18        -0.00          2.59506
             Al 49 -- Ni 139                 0.18         0.00          2.59571
             Al 12 -- Ni 32                  0.20        -0.00          2.59572
             Al 16 -- Ni 40                  0.19        -0.00          2.59593
             Al 43 -- Ni 150                 0.18         0.00          2.59615
            Ni 26  -- Ni 43                  0.06         0.00          2.59622
            Ni 116 -- Ni 118                 0.02        -0.00          2.59626
            Ni 145 -- Ni 170                -0.00         0.00          2.59653
            Ni 170 -- Ni 175                -0.01         0.00          2.59656
             Al 51 -- Ni 124                 0.19         0.00          2.59664
             Al 34 -- Ni 162                 0.16        -0.00          2.59672
            Ni 1   -- Ni 8                   0.03         0.00          2.59677
            Ni 129 -- Ni 132                 0.11        -0.00          2.59688
            Ni 60  -- Ni 65                  0.01         0.00          2.59697
             Al 63 -- Ni 97                  0.17         0.00          2.59704
            Ni 155 -- Ni 156                 0.06         0.00          2.59711
            Ni 59  -- Ni 78                 -0.00         0.00          2.59715
            Ni 41  -- Ni 66                 -0.03         0.00          2.59755
             Al 44 -- Ni 170                 0.16         0.00          2.59758
             Al 17 -- Ni 69                  0.18        -0.00          2.59768
            Ni 13  -- Ni 139                -0.01         0.00          2.59787
            Ni 151 -- Ni 174                -0.04         0.00          2.59792
            Ni 138 -- Ni 139                -0.01         0.00          2.59802
             Al 15 -- Ni 37                  0.19        -0.00          2.59802
            Ni 51  -- Ni 52                  0.03         0.00          2.59804
             Al 41 -- Ni 129                 0.20         0.00          2.59845
            Ni 151 -- Ni 152                 0.04         0.00          2.59855
            Ni 35  -- Ni 129                 0.10         0.00          2.59902
             Al 56 -- Ni 128                 0.15        -0.00          2.59920
            Ni 111 -- Ni 186                 0.08         0.00          2.59935
            Ni 13  -- Ni 20                  0.06         0.00          2.59940
             Al 56 -- Ni 135                 0.15         0.00          2.59984
            Ni 49  -- Ni 75                  0.01         0.00          2.60022
             Al 38 -- Ni 188                 0.17        -0.00          2.60047
            Ni 53  -- Ni 54                  0.00         0.00          2.60070
            Ni 41  -- Ni 42                  0.03         0.00          2.60127
             Al 3  -- Ni 180                 0.17         0.00          2.60159
             Al 60 -- Ni 113                 0.19        -0.00          2.60186
             Al 58 -- Ni 117                 0.15        -0.00          2.60192
            Ni 112 -- Ni 122                 0.11         0.00          2.60253
            Ni 68  -- Ni 69                  0.03         0.00          2.60255
            Ni 133 -- Ni 160                -0.02         0.00          2.60260
             Al 50 -- Ni 142                 0.15        -0.00          2.60268
            Ni 150 -- Ni 178                 0.08         0.00          2.60283
            Ni 155 -- Ni 157                 0.07         0.00          2.60315
            Ni 123 -- Ni 124                 0.02        -0.00          2.60323
            Ni 13  -- Ni 39                  0.01         0.00          2.60351
            Ni 117 -- Ni 122                 0.03         0.00          2.60381
            Ni 99  -- Ni 169                 0.01        -0.00          2.60418
             Al 22 -- Ni 57                  0.19        -0.00          2.60452
            Ni 54  -- Ni 59                  0.00         0.00          2.60457
            Ni 47  -- Ni 163                 0.06         0.00          2.60477
            Ni 138 -- Ni 159                 0.02         0.00          2.60485
            Ni 111 -- Ni 115                 0.04         0.00          2.60526
            Ni 25  -- Ni 27                  0.00         0.00          2.60570
            Ni 161 -- Ni 162                -0.01         0.00          2.60628
            Ni 95  -- Ni 96                  0.01        -0.00          2.60631
            Ni 55  -- Ni 181                 0.06         0.00          2.60684
            Ni 152 -- Ni 158                 0.03         0.00          2.60738
            Ni 143 -- Ni 167                 0.01         0.00          2.60753
            Ni 113 -- Ni 139                 0.01         0.00          2.60858
            Ni 53  -- Ni 78                  0.00         0.00          2.60863
             Al 55 -- Ni 31                  0.17        -0.00          2.60906
             Al 21 -- Ni 159                 0.16         0.00          2.60922
             Al 9  -- Ni 43                  0.19        -0.00          2.60929
            Ni 147 -- Ni 170                -0.02         0.00          2.60946
             Al 9  -- Ni 144                 0.19         0.00          2.60971
             Al 38 -- Ni 177                 0.17         0.00          2.60999
            Ni 178 -- Ni 185                 0.08        -0.00          2.61013
            Ni 173 -- Ni 192                -0.01         0.00          2.61041
             Al 34 -- Ni 122                 0.16        -0.00          2.61049
            Ni 129 -- Ni 130                 0.08         0.00          2.61058
            Ni 169 -- Ni 172                 0.01         0.00          2.61070
            Ni 130 -- Ni 153                -0.01         0.00          2.61085
             Al 51 -- Ni 163                 0.16        -0.00          2.61150
            Ni 71  -- Ni 90                  0.02         0.00          2.61181
            Ni 146 -- Ni 174                 0.01         0.00          2.61208
            Ni 121 -- Ni 173                 0.01         0.00          2.61259
             Al 11 -- Ni 107                 0.16         0.00          2.61286
             Al 17 -- Ni 43                  0.17        -0.00          2.61306
             Al 38 -- Ni 178                 0.17        -0.00          2.61309
            Ni 172 -- Ni 177                -0.02         0.00          2.61330
            Ni 117 -- Ni 191                 0.08         0.00          2.61347
             Al 58 -- Ni 122                 0.18        -0.00          2.61376
            Ni 156 -- Ni 167                 0.11        -0.00          2.61396
            Ni 178 -- Ni 184                 0.03         0.00          2.61454
            Ni 115 -- Ni 117                 0.09         0.00          2.61520
             Al 61 -- Ni 104                 0.15        -0.00          2.61578
            Ni 168 -- Ni 177                 0.03        -0.00          2.61589
             Al 46 -- Ni 153                 0.15         0.00          2.61617
             Al 53 -- Ni 137                 0.18         0.00          2.61649
            Ni 127 -- Ni 134                 0.02         0.00          2.61694
             Al 48 -- Ni 120                 0.18        -0.00          2.61697
            Ni 65  -- Ni 66                  0.02         0.00          2.61723
            Ni 158 -- Ni 181                -0.01         0.00          2.61792
            Ni 138 -- Ni 160                 0.05         0.00          2.61795
             Al 21 -- Ni 31                  0.19         0.00          2.61854
            Ni 178 -- Ni 179                 0.06         0.00          2.61909
            Ni 152 -- Ni 160                 0.02         0.00          2.61928
             Al 40 -- Ni 143                 0.18        -0.00          2.61934
            Ni 130 -- Ni 149                -0.02         0.00          2.62023
             Al 35 -- Ni 122                 0.17         0.00          2.62037
            Ni 42  -- Ni 47                 -0.01         0.00          2.62151
             Al 36 -- Ni 122                 0.17         0.00          2.62154
            Ni 37  -- Ni 39                  0.01         0.00          2.62181
             Al 36 -- Ni 184                 0.17         0.00          2.62223
            Ni 110 -- Ni 118                 0.04        -0.00          2.62284
            Ni 140 -- Ni 141                 0.07        -0.00          2.62285
             Al 58 -- Ni 119                 0.16         0.00          2.62310
            Ni 102 -- Ni 109                -0.00        -0.00          2.62382
             Al 5  -- Ni 7                   0.19         0.00          2.62402
            Ni 159 -- Ni 160                 0.09         0.00          2.62519
            Ni 136 -- Ni 141                 0.01        -0.00          2.62554
            Ni 65  -- Ni 148                 0.04         0.00          2.62607
             Al 50 -- Ni 117                 0.14        -0.00          2.62873
             Al 43 -- Ni 155                 0.18        -0.00          2.62873
             Al 47 -- Ni 150                 0.18        -0.00          2.62909
            Ni 156 -- Ni 157                 0.12        -0.00          2.62940
            Ni 102 -- Ni 108                 0.09         0.00          2.62948
            Ni 158 -- Ni 160                 0.11         0.00          2.63062
             Al 44 -- Ni 175                 0.16        -0.00          2.63068
             Al 5  -- Ni 115                 0.15         0.00          2.63114
            Ni 170 -- Ni 171                -0.02         0.00          2.63155
            Ni 124 -- Ni 125                 0.03        -0.00          2.63156
             Al 23 -- Ni 166                 0.14         0.00          2.63257
            Ni 134 -- Ni 135                 0.09        -0.00          2.63389
             Al 52 -- Ni 37                  0.15         0.00          2.63439
            Ni 162 -- Ni 164                 0.01         0.00          2.63474
            Ni 154 -- Ni 155                 0.06         0.00          2.63482
            Ni 114 -- Ni 138                 0.00         0.00          2.63484
            Ni 108 -- Ni 111                 0.02         0.00          2.63490
             Al 38 -- Ni 182                 0.16         0.00          2.63541
             Al 63 -- Ni 100                 0.16         0.00          2.63707
             Al 52 -- Ni 31                  0.16         0.00          2.63857
             Al 39 -- Ni 178                 0.18        -0.00          2.63868
            Ni 155 -- Ni 188                 0.03         0.00          2.63950
            Ni 150 -- Ni 153                -0.01         0.00          2.63969
             Al 11 -- Ni 31                  0.17        -0.00          2.64015
             Al 37 -- Ni 190                 0.15        -0.00          2.64019
            Ni 7   -- Ni 107                 0.01         0.00          2.64047
            Ni 31  -- Ni 32                  0.05         0.00          2.64122
             Al 23 -- Ni 159                 0.14         0.00          2.64157
            Ni 156 -- Ni 162                 0.13         0.00          2.64201
            Ni 126 -- Ni 127                -0.00         0.00          2.64228
            Ni 31  -- Ni 57                  0.07         0.00          2.64334
             Al 44 -- Ni 150                 0.14        -0.00          2.64358
            Ni 114 -- Ni 133                -0.03         0.00          2.64485
             Al 48 -- Al 50                  0.25         0.00          2.64522
             Al 3  -- Ni 7                   0.18        -0.00          2.64523
             Al 59 -- Ni 7                   0.15         0.00          2.64536
             Al 46 -- Ni 147                 0.13         0.00          2.64674
            Ni 106 -- Ni 135                 0.03         0.00          2.64798
             Al 13 -- Ni 139                 0.16         0.00          2.64842
             Al 50 -- Al 58                  0.24         0.00          2.65083
             Al 48 -- Al 49                  0.26         0.00          2.65088
             Al 37 -- Ni 122                 0.16         0.00          2.65218
             Al 35 -- Ni 189                 0.15        -0.00          2.65333
             Al 33 -- Ni 122                 0.15         0.00          2.65582
             Al 50 -- Ni 119                 0.13         0.00          2.65847
            Ni 7   -- Ni 8                   0.05         0.00          2.65967
             Al 35 -- Ni 190                 0.13         0.00          2.66059
            Ni 7   -- Ni 9                   0.06         0.00          2.66342
             Al 43 -- Ni 160                 0.15        -0.00          2.66633
             Al 42 -- Al 43                  0.25         0.00          2.66852
             Al 42 -- Ni 153                 0.16        -0.00          2.67124
             Al 23 -- Al 49                  0.24         0.00          2.67195
             Al 38 -- Al 45                  0.23         0.00          2.68075
            Ni 168 -- Ni 169                 0.02        -0.00          2.68986
            Ni 148 -- Ni 150                 0.07         0.00          2.69059
             Al 45 -- Al 62                  0.21         0.00          2.69548
             Al 46 -- Al 56                  0.26         0.00          2.69606
            Ni 161 -- Ni 170                 0.02         0.00          2.70738
             Al 5  -- Al 59                  0.20         0.00          2.71322
             Al 56 -- Ni 130                 0.10         0.00          2.71541
             Al 19 -- Ni 31                  0.13        -0.00          2.71608
             Al 42 -- Al 45                  0.21         0.00          2.72030
             Al 11 -- Al 55                  0.20         0.00          2.72226
            Ni 164 -- Ni 170                 0.04         0.00          2.72303
             Al 36 -- Al 37                  0.22         0.00          2.72383
            Ni 149 -- Ni 150                 0.00         0.00          2.72535
             Al 56 -- Ni 124                 0.10         0.00          2.73310
             Al 46 -- Al 47                  0.21         0.00          2.73502
             Al 55 -- Al 59                  0.20         0.00          2.73509
             Al 34 -- Al 35                  0.19         0.00          2.73740
             Al 33 -- Al 35                  0.21         0.00          2.73827
             Al 33 -- Al 58                  0.20         0.00          2.74105
             Al 21 -- Al 52                  0.20         0.00          2.74450
             Al 34 -- Al 37                  0.19         0.00          2.74496
             Al 57 -- Al 63                  0.19        -0.00          2.74968
             Al 61 -- Al 63                  0.20        -0.00          2.75008
             Al 52 -- Al 55                  0.20         0.00          2.76065
             Al 47 -- Al 62                  0.18         0.00          2.76643
             Al 15 -- Al 49                  0.19         0.00          2.77153
             Al 44 -- Al 46                  0.20         0.00          2.77398
             Al 40 -- Al 51                  0.20         0.00          2.77848
             Al 53 -- Al 54                  0.18         0.00          2.78018
             Al 42 -- Ni 150                 0.11         0.00          2.78303
             Al 44 -- Al 45                  0.15         0.00          2.78525
             Al 41 -- Al 43                  0.16         0.00          2.78646
             Al 41 -- Al 53                  0.17         0.00          2.80218
             Al 43 -- Al 54                  0.16         0.00          2.80647
             Al 13 -- Al 59                  0.17        -0.00          2.82987
             Al 13 -- Al 52                  0.17         0.00          2.83105
             Al 56 -- Al 57                  0.15        -0.00          2.84016
             Al 41 -- Al 54                  0.12        -0.00          2.86788
             Al 13 -- Al 55                  0.08         0.00          2.95509
================================================================================
 

Writing analysis data to castep.castep_bin

Writing model to castep.check
 
 A BibTeX formatted list of references used in this run has been written to 
 castep.bib
 
Initialisation time =     30.23 s
Calculation time    =  15714.23 s
Finalisation time   =     18.56 s
Total time          =  15763.01 s
Peak Memory Use     = 3970772 kB
 
Overall parallel efficiency rating: Satisfactory (66%)
 
Data was distributed by:-
G-vector (128-way); efficiency rating: Satisfactory (68%)
