 +-------------------------------------------------+
 |                                                 |
 |      CCC   AA    SSS  TTTTT  EEEEE  PPPP        |
 |     C     A  A  S       T    E      P   P       |
 |     C     AAAA   SS     T    EEE    PPPP        |
 |     C     A  A     S    T    E      P           |
 |      CCC  A  A  SSS     T    EEEEE  P           |
 |                                                 |
 +-------------------------------------------------+
 |                                                 |
 | Welcome to Academic Release CASTEP version 20.11|          
 | Ab Initio Total Energy Program                  |
 |                                                 |
 | Authors:                                        |
 | M. Segall, M. Probert, C. Pickard, P. Hasnip,   |
 | S. Clark, K. Refson, J. R. Yates, M. Payne      |
 |                                                 |
 | Contributors:                                   |
 | P. Lindan, P. Haynes, J. White, V. Milman,      |
 | N. Govind, M. Gibson, P. Tulip, V. Cocula,      |
 | B. Montanari, D. Quigley, M. Glover,            |
 | L. Bernasconi, A. Perlov, M. Plummer,           |
 | E. McNellis, J. Meyer, J. Gale, D. Jochym       |
 | J. Aarons, B. Walker, R. Gillen, D. Jones       |
 | T. Green, I. J. Bush, C. J. Armstrong,          |
 | E. J. Higgins, E. L. Brown, M. S. McFly,        |
 | J. Wilkins, B-C. Shih, P. J. P. Byrne,          |
 | R. J. Maurer, J. C. Womack, J. Dziedzic,        |
 | J. R. Kermode, A. Bartok-Partay                 |
 |                                                 |
 | Copyright (c) 2000 - 2020                       |
 |                                                 |
 |     Distributed under license from Cambridge    |
 |     Enterprise for academic use only.           |
 |                                                 |
 | Please cite                                     |
 |                                                 |
 |     "First principles methods using CASTEP"     |
 |                                                 |
 |         Zeitschrift fuer Kristallographie       |
 |           220(5-6) pp. 567-570 (2005)           |
 |                                                 |
 | S. J. Clark, M. D. Segall, C. J. Pickard,       |
 | P. J. Hasnip, M. J. Probert, K. Refson,         |
 | M. C. Payne                                     |
 |                                                 |
 |       in all publications arising from          |
 |              your use of CASTEP                 |
 |                                                 |
 +-------------------------------------------------+
 |                                                 |
 |              http://www.castep.org              |
 |                                                 |
 +-------------------------------------------------+
 
 
 
 Compiled for linux_x86_64_ifort on Wed, 25 Aug 2021 18:50:38 +0100
 from code version e772bf432+  HEAD  Sat Apr 3 17:41:32 2021 +0100
 Compiler: Intel Fortran 19.0.5.281; Optimisation: fast
 MATHLIBS: Intel MKL(2019.0.5) (LAPACK version 3.7.0)
 FFT Lib : mkl
 Fundamental constants values: CODATA 2014
 
 Run started: Thu, 09 Mar 2023 11:11:25 +0000
 
 Atomic calculation performed for Al: 1s2 2s2 2p6 3s2 3p1
 
 Converged in 52 iterations to an ae energy of -6606.982 eV
 
   ============================================================                
   | Pseudopotential Report - Date of generation  9-03-2023   |                
   ------------------------------------------------------------                
   | Element: Al Ionic charge:  3.00 Level of theory: RPBE    |                
   | Atomic Solver: Koelling-Harmon                           |                
   |                                                          |                
   |               Reference Electronic Structure             |                
   |         Orbital         Occupation         Energy        |                
   |            3s              2.000           -0.284        |                
   |            3p              1.000           -0.100        |                
   |                                                          |                
   |                 Pseudopotential Definition               |                
   |        Beta     l      e      Rc     scheme   norm       |                
   |          1      0   -0.284   2.192     qc      0         |                
   |          2      0    0.250   2.192     qc      0         |                
   |          3      1   -0.100   2.192     qc      0         |                
   |          4      1    0.250   2.192     qc      0         |                
   |          5      2    0.000   2.000     qc      0         |                
   |          6      2    0.250   2.000     qc      0         |                
   |         loc     3    0.000   2.192     pn      0         |                
   |                                                          |                
   | Augmentation charge Rinner = 1.398                       |                
   | Partial core correction Rc = 1.398                       |                
   ------------------------------------------------------------                
   | "3|2.2|2.2|1.4|4|5|5|30:31:32U2U2"                       |                
   ------------------------------------------------------------                
   |      Author: Chris J. Pickard, Cambridge University      |                
   ============================================================                
 
 Atomic calculation performed for Ni: 1s2 2s2 2p6 3s2 3p6 3d8 4s2
 
 Converged in 109 iterations to an ae energy of -41381.414 eV
 
   ============================================================                
   | Pseudopotential Report - Date of generation  9-03-2023   |                
   ------------------------------------------------------------                
   | Element: Ni Ionic charge: 10.00 Level of theory: RPBE    |                
   | Atomic Solver: Koelling-Harmon                           |                
   |                                                          |                
   |               Reference Electronic Structure             |                
   |         Orbital         Occupation         Energy        |                
   |            3d              8.000           -0.324        |                
   |            4s              2.000           -0.204        |                
   |                                                          |                
   |                 Pseudopotential Definition               |                
   |        Beta     l      e      Rc     scheme   norm       |                
   |          1      0   -0.204   2.401     qc      0         |                
   |          2      0    0.250   2.401     qc      0         |                
   |          3      1    0.000   2.401     qc      0         |                
   |          4      1    0.250   2.401     qc      0         |                
   |          5      2   -0.324   1.999     qc      0         |                
   |          6      2    0.250   1.999     qc      0         |                
   |         loc     3    0.000   2.401     pn      0         |                
   |                                                          |                
   | Augmentation charge Rinner = 1.001                       |                
   | Partial core correction Rc = 1.001                       |                
   ------------------------------------------------------------                
   | "3|2.4|2.4|1.0|8|9|10|40:41:32U2U2(qc=5.5)"              |                
   ------------------------------------------------------------                
   |      Author: Chris J. Pickard, Cambridge University      |                
   ============================================================                
 
 Pseudo atomic calculation performed for Al 3s2 3p1
 
 Converged in 13 iterations to a total energy of -107.6592 eV
 
 Pseudo atomic calculation performed for Ni 3d8 4s2
 
 Converged in 41 iterations to a total energy of -1369.7891 eV
 Calculation parallelised over 48 processes.
 Data is distributed by G-vector(48-way)

 ************************************ Title ************************************
 

 ***************************** General Parameters ******************************
  
 output verbosity                               : normal  (1)
 write checkpoint data to                       : castep.check
 type of calculation                            : geometry optimization
 stress calculation                             : off
 density difference calculation                 : off
 electron localisation func (ELF) calculation   : off
 Hirshfeld analysis                             : off
 molecular orbital projected DOS                : off
 deltaSCF calculation                           : off
 unlimited duration calculation
 timing information                             : on
 memory usage estimate                          : on
 write extra output files                       : on
 write final potential to formatted file        : off
 write final density to formatted file          : off
 write BibTeX reference list                    : on
 write OTFG pseudopotential files               : on
 write electrostatic potential file             : on
 write bands file                               : on
 checkpoint writing                             : both castep_bin and check files
  
 output         length unit                     : A
 output           mass unit                     : amu
 output           time unit                     : ps
 output         charge unit                     : e
 output           spin unit                     : hbar/2
 output         energy unit                     : eV
 output          force unit                     : eV/A
 output       velocity unit                     : A/ps
 output       pressure unit                     : GPa
 output     inv_length unit                     : 1/A
 output      frequency unit                     : cm-1
 output force constant unit                     : eV/A**2
 output         volume unit                     : A**3
 output   IR intensity unit                     : (D/A)**2/amu
 output         dipole unit                     : D
 output         efield unit                     : eV/A/e
 output        entropy unit                     : J/mol/K
 output    efield chi2 unit                     : pm/V
  
 wavefunctions paging                           : none
 random number generator seed                   : randomised (111126086)
 data distribution                              : optimal for this architecture
 optimization strategy                          : maximize speed(+++)

 *********************** Exchange-Correlation Parameters ***********************
  
 using functional                               : revised Perdew Burke Ernzerhof
 relativistic treatment                         : Koelling-Harmon
 DFT+D: Semi-empirical dispersion correction    : off

 ************************* Pseudopotential Parameters **************************
  
 pseudopotential representation                 : reciprocal space
 <beta|phi> representation                      : reciprocal space
 spin-orbit coupling                            : off

 **************************** Basis Set Parameters *****************************
  
 plane wave basis set cut-off                   :   900.0000   eV
 size of standard grid                          :     1.7500
 size of   fine   gmax                          :    26.8966   1/A
 finite basis set correction                    : none

 **************************** Electronic Parameters ****************************
  
 number of  electrons                           :  2109.    
 net charge of system                           :  0.000    
 net spin   of system                           :  1.000    
 number of  up  spins                           :  1055.    
 number of down spins                           :  1054.    
 treating system as spin-polarized
 number of bands                                :       1167

 ********************* Electronic Minimization Parameters **********************
  
 Method: Treating system as metallic with density mixing treatment of electrons,
         and number of  SD  steps               :          1
         and number of  CG  steps               :          4
  
 total energy / atom convergence tol.           : 0.1000E-05   eV
 eigen-energy convergence tolerance             : 0.2185E-06   eV
 max force / atom convergence tol.              : ignored
 convergence tolerance window                   :          3   cycles
 max. number of SCF cycles                      :        200
 number of fixed-spin iterations                :         10
 smearing scheme                                : Gaussian
 smearing width                                 : 0.2000       eV
 Fermi energy convergence tolerance             : 0.2721E-13   eV
 periodic dipole correction                     : NONE
 periodically dump wavefunctions to             : castep.wvfn
 dump wavefunctions every                       :          1   SCF cycles

 ************************** Density Mixing Parameters **************************
  
 density-mixing scheme                          : Pulay
 max. length of mixing history                  :         20
 charge density mixing amplitude                : 0.8000    
   spin density mixing amplitude                :  2.000    
 cut-off energy for mixing                      :  900.0       eV

 *********************** Population Analysis Parameters ************************
  
 Population analysis with cutoff                :  3.000       A
 Population analysis output                     : summary and pdos components

 ********************** Geometry Optimization Parameters ***********************
  
 optimization method                            : LBFGS
 max. no. of LBFGS updates                      : unbounded
 variable cell method                           : fixed basis quality
 max. number of steps                           :         30
 estimated bulk modulus                         :  500.0       GPa
 estimated <frequency>                          :  1668.       cm-1
 geom line minimiser                            : on
 with line minimiser tolerance                  :     0.4000
  with spin fully able to relax for all steps
 total energy convergence tolerance             : 0.2000E-04   eV/atom
        max ionic |force| tolerance             : 0.5000E-01   eV/A
 max ionic |displacement| tolerance             : 0.1000E-02   A
   max |stress component| tolerance             : 0.1000       GPa
 convergence tolerance window                   :          2   steps
 backup results every                           :          5   steps
 write geom trajectory file                     : on

 *******************************************************************************
  
 
                           -------------------------------
                                      Unit Cell
                           -------------------------------
        Real Lattice(A)                      Reciprocal Lattice(1/A)
    14.4648280     0.0000000     0.0000000        0.434376773   0.000000000   0.000000000
     0.0000000    14.4648280     0.0000000        0.000000000   0.434376773   0.000000000
     0.0000000     0.0000000    14.4648280        0.000000000   0.000000000   0.434376773
 
                       Lattice parameters(A)       Cell Angles
                    a =     14.464828          alpha =   90.000000
                    b =     14.464828          beta  =   90.000000
                    c =     14.464828          gamma =   90.000000
 
                       Current cell volume =          3026.494030       A**3
                                   density =             4.285146   AMU/A**3
                                           =             7.115653     g/cm^3
 
                           -------------------------------
                                     Cell Contents
                           -------------------------------
                         Total number of ions in cell =  255
                      Total number of species in cell =    2
                        Max number of any one species =  192
 
            xxxxxxxxxxxxxxxxxxxxxxxxxxxxxxxxxxxxxxxxxxxxxxxxxxxxxxxxxxxx
            x  Element    Atom        Fractional coordinates of atoms  x
            x            Number           u          v          w      x
            x----------------------------------------------------------x
            x  Al           1         0.569671   0.062009   0.562605   x 
            x  Al           2         0.817700   0.062456   0.561964   x 
            x  Al           3         0.569088   0.313422   0.562020   x 
            x  Al           4         0.817933   0.312117   0.562117   x 
            x  Al           5         0.574056   0.563092   0.556831   x 
            x  Al           6         0.819107   0.562266   0.560842   x 
            x  Al           7         0.570326   0.811125   0.561944   x 
            x  Al           8         0.818909   0.812646   0.561041   x 
            x  Al           9         0.568753   0.060095   0.810227   x 
            x  Al          10         0.817159   0.062181   0.811378   x 
            x  Al          11         0.569022   0.314467   0.810086   x 
            x  Al          12         0.817047   0.312406   0.811266   x 
            x  Al          13         0.576106   0.564473   0.812015   x 
            x  Al          14         0.818723   0.562384   0.811511   x 
            x  Al          15         0.572160   0.810085   0.807775   x 
            x  Al          16         0.818703   0.812283   0.811312   x 
            x  Al          17         0.571808   0.060761   0.060829   x 
            x  Al          18         0.817226   0.062739   0.060830   x 
            x  Al          19         0.571158   0.313269   0.059855   x 
            x  Al          20         0.817120   0.311746   0.060910   x 
            x  Al          21         0.574510   0.562559   0.065379   x 
            x  Al          22         0.819272   0.562010   0.062019   x 
            x  Al          23         0.575947   0.811229   0.067276   x 
            x  Al          24         0.819046   0.812596   0.061819   x 
            x  Al          25         0.571671   0.062546   0.312719   x 
            x  Al          26         0.817923   0.062779   0.312073   x 
            x  Al          27         0.572517   0.312159   0.313158   x 
            x  Al          28         0.817874   0.311612   0.311687   x 
            x  Al          29         0.571811   0.562379   0.311328   x 
            x  Al          30         0.819732   0.561879   0.311727   x 
            x  Al          31         0.571582   0.811976   0.310800   x 
            x  Al          32         0.819575   0.813068   0.312232   x 
            x  Al          33         0.328504   0.936472   0.432683   x 
            x  Al          34         0.056377   0.810828   0.306170   x 
            x  Al          35         0.192860   0.943811   0.303672   x 
            x  Al          36         0.321565   0.687375   0.436650   x 
            x  Al          37         0.192421   0.682355   0.302271   x 
            x  Al          38         0.326027   0.312155   0.562268   x 
            x  Al          39         0.072887   0.441676   0.428472   x 
            x  Al          40         0.198433   0.943022   0.072156   x 
            x  Al          41         0.066373   0.558965   0.064246   x 
            x  Al          42         0.323681   0.427351   0.195483   x 
            x  Al          43         0.193405   0.420810   0.062642   x 
            x  Al          44         0.330086   0.190735   0.189473   x 
            x  Al          45         0.318124   0.440057   0.427365   x 
            x  Al          46         0.190008   0.187108   0.055954   x 
            x  Al          47         0.062088   0.189041   0.188069   x 
            x  Al          48         0.317636   0.813460   0.810873   x 
            x  Al          49         0.439296   0.810590   0.944046   x 
            x  Al          50         0.186966   0.807616   0.683242   x 
            x  Al          51         0.068498   0.938105   0.940571   x 
            x  Al          52         0.432917   0.563446   0.937435   x 
            x  Al          53         0.071362   0.698835   0.941016   x 
            x  Al          54         0.201110   0.561303   0.931702   x 
            x  Al          55         0.325180   0.317936   0.807350   x 
            x  Al          56         0.329409   0.181440   0.936895   x 
            x  Al          57         0.184123   0.176917   0.810976   x 
            x  Al          58         0.187466   0.940209   0.555219   x 
            x  Al          59         0.433605   0.564837   0.685845   x 
            x  Al          60         0.192007   0.563918   0.685245   x 
            x  Al          61         0.187548   0.177797   0.553977   x 
            x  Al          62         0.194873   0.187751   0.321508   x 
            x  Al          63         0.180057   0.319141   0.682536   x 
            x  Ni           1         0.567808   0.186580   0.686768   x 
            x  Ni           2         0.693203   0.061678   0.686664   x 
            x  Ni           3         0.693019   0.187568   0.562422   x 
            x  Ni           4         0.817111   0.187637   0.686859   x 
            x  Ni           5         0.941867   0.062697   0.686682   x 
            x  Ni           6         0.942201   0.187501   0.561862   x 
            x  Ni           7         0.567419   0.442929   0.684778   x 
            x  Ni           8         0.691742   0.313488   0.686418   x 
            x  Ni           9         0.694552   0.437294   0.561096   x 
            x  Ni          10         0.818294   0.437149   0.686422   x 
            x  Ni          11         0.942163   0.312283   0.686696   x 
            x  Ni          12         0.942594   0.436944   0.561459   x 
            x  Ni          13         0.567231   0.683951   0.684774   x 
            x  Ni          14         0.695575   0.563012   0.685255   x 
            x  Ni          15         0.695094   0.687768   0.560341   x 
            x  Ni          16         0.819358   0.687508   0.685896   x 
            x  Ni          17         0.942578   0.562010   0.686300   x 
            x  Ni          18         0.943146   0.687240   0.561139   x 
            x  Ni          19         0.567484   0.936237   0.685733   x 
            x  Ni          20         0.694198   0.811278   0.685344   x 
            x  Ni          21         0.693364   0.936892   0.561486   x 
            x  Ni          22         0.818071   0.937118   0.686318   x 
            x  Ni          23         0.942849   0.812487   0.686296   x 
            x  Ni          24         0.942685   0.937842   0.561571   x 
            x  Ni          25         0.448978   0.186546   0.060795   x 
            x  Ni          26         0.691837   0.061164   0.935202   x 
            x  Ni          27         0.692046   0.187337   0.811051   x 
            x  Ni          28         0.816713   0.187310   0.935829   x 
            x  Ni          29         0.941801   0.062716   0.936348   x 
            x  Ni          30         0.941660   0.187532   0.811528   x 
            x  Ni          31         0.566890   0.441629   0.937371   x 
            x  Ni          32         0.691832   0.313110   0.935327   x 
            x  Ni          33         0.693728   0.437878   0.811303   x 
            x  Ni          34         0.818134   0.437131   0.936353   x 
            x  Ni          35         0.941798   0.312181   0.936405   x 
            x  Ni          36         0.942278   0.437132   0.811538   x 
            x  Ni          37         0.566558   0.686908   0.938649   x 
            x  Ni          38         0.694967   0.563331   0.937567   x 
            x  Ni          39         0.695532   0.687808   0.811382   x 
            x  Ni          40         0.819486   0.687560   0.936809   x 
            x  Ni          41         0.942667   0.561998   0.936716   x 
            x  Ni          42         0.942850   0.687190   0.811447   x 
            x  Ni          43         0.567605   0.932593   0.936816   x 
            x  Ni          44         0.693627   0.811070   0.936753   x 
            x  Ni          45         0.693419   0.936060   0.811052   x 
            x  Ni          46         0.817999   0.937116   0.936112   x 
            x  Ni          47         0.943013   0.812535   0.936637   x 
            x  Ni          48         0.942262   0.937588   0.811423   x 
            x  Ni          49         0.569368   0.187297   0.186709   x 
            x  Ni          50         0.693933   0.062589   0.186691   x 
            x  Ni          51         0.692261   0.187149   0.060243   x 
            x  Ni          52         0.817543   0.187282   0.186134   x 
            x  Ni          53         0.942345   0.063053   0.186391   x 
            x  Ni          54         0.941828   0.187515   0.061214   x 
            x  Ni          55         0.569677   0.437184   0.187216   x 
            x  Ni          56         0.693395   0.311860   0.186310   x 
            x  Ni          57         0.694786   0.437118   0.061566   x 
            x  Ni          58         0.818745   0.436355   0.186663   x 
            x  Ni          59         0.942171   0.311894   0.186370   x 
            x  Ni          60         0.942297   0.436713   0.061588   x 
            x  Ni          61         0.569925   0.686202   0.188397   x 
            x  Ni          62         0.696278   0.561933   0.187976   x 
            x  Ni          63         0.696320   0.687090   0.062774   x 
            x  Ni          64         0.820042   0.687367   0.187302   x 
            x  Ni          65         0.943078   0.561757   0.186732   x 
            x  Ni          66         0.943190   0.687297   0.061878   x 
            x  Ni          67         0.570131   0.937494   0.187577   x 
            x  Ni          68         0.696582   0.812473   0.188387   x 
            x  Ni          69         0.695110   0.937252   0.061591   x 
            x  Ni          70         0.818894   0.938192   0.187007   x 
            x  Ni          71         0.943230   0.812788   0.186728   x 
            x  Ni          72         0.942312   0.937925   0.061484   x 
            x  Ni          73         0.568464   0.187834   0.438191   x 
            x  Ni          74         0.693109   0.062193   0.437758   x 
            x  Ni          75         0.693795   0.187151   0.312271   x 
            x  Ni          76         0.817882   0.187166   0.437268   x 
            x  Ni          77         0.942606   0.062889   0.436746   x 
            x  Ni          78         0.942168   0.187458   0.311553   x 
            x  Ni          79         0.569327   0.437923   0.435842   x 
            x  Ni          80         0.694060   0.312173   0.437624   x 
            x  Ni          81         0.694936   0.436717   0.311743   x 
            x  Ni          82         0.818897   0.436671   0.436534   x 
            x  Ni          83         0.942387   0.311983   0.436672   x 
            x  Ni          84         0.942777   0.436519   0.311541   x 
            x  Ni          85         0.568636   0.687743   0.434884   x 
            x  Ni          86         0.695882   0.562482   0.435207   x 
            x  Ni          87         0.695750   0.687511   0.311950   x 
            x  Ni          88         0.819606   0.687787   0.436262   x 
            x  Ni          89         0.943051   0.561918   0.436378   x 
            x  Ni          90         0.943623   0.687363   0.311662   x 
            x  Ni          91         0.567565   0.936178   0.436995   x 
            x  Ni          92         0.694053   0.812595   0.436367   x 
            x  Ni          93         0.694285   0.937788   0.312540   x 
            x  Ni          94         0.818598   0.937839   0.436938   x 
            x  Ni          95         0.943509   0.812762   0.436487   x 
            x  Ni          96         0.943096   0.938200   0.311694   x 
            x  Ni          97         0.067879   0.182841   0.682282   x 
            x  Ni          98         0.190987   0.059335   0.682999   x 
            x  Ni          99         0.063147   0.057955   0.556692   x 
            x  Ni         100         0.310538   0.190550   0.685688   x 
            x  Ni         101         0.441946   0.060618   0.686443   x 
            x  Ni         102         0.314749   0.436888   0.683002   x 
            x  Ni         103         0.319449   0.061231   0.560096   x 
            x  Ni         104         0.063030   0.314898   0.554149   x 
            x  Ni         105         0.063170   0.442526   0.684620   x 
            x  Ni         106         0.316463   0.562550   0.808946   x 
            x  Ni         107         0.445566   0.315019   0.685838   x 
            x  Ni         108         0.443898   0.440484   0.559594   x 
            x  Ni         109         0.192083   0.438787   0.557502   x 
            x  Ni         110         0.066701   0.687418   0.684083   x 
            x  Ni         111         0.317336   0.562140   0.558228   x 
            x  Ni         112         0.191017   0.688491   0.555847   x 
            x  Ni         113         0.314301   0.689760   0.683374   x 
            x  Ni         114         0.445320   0.442695   0.810689   x 
            x  Ni         115         0.443801   0.686792   0.560651   x 
            x  Ni         116         0.065706   0.933660   0.682440   x 
            x  Ni         117         0.315850   0.814375   0.558029   x 
            x  Ni         118         0.067449   0.811427   0.554236   x 
            x  Ni         119         0.314313   0.933901   0.683816   x 
            x  Ni         120         0.442236   0.809955   0.686141   x 
            x  Ni         121         0.443874   0.936352   0.561930   x 
            x  Ni         122         0.193357   0.813760   0.426716   x 
            x  Ni         123         0.064147   0.183949   0.936734   x 
            x  Ni         124         0.193355   0.060388   0.938446   x 
            x  Ni         125         0.062532   0.056189   0.810677   x 
            x  Ni         126         0.447318   0.058265   0.935456   x 
            x  Ni         127         0.442881   0.186847   0.808557   x 
            x  Ni         128         0.318961   0.061005   0.809552   x 
            x  Ni         129         0.070590   0.437035   0.939243   x 
            x  Ni         130         0.195583   0.305510   0.930040   x 
            x  Ni         131         0.190012   0.436026   0.810041   x 
            x  Ni         132         0.064127   0.311337   0.810808   x 
            x  Ni         133         0.316804   0.433431   0.936851   x 
            x  Ni         134         0.566923   0.186830   0.934224   x 
            x  Ni         135         0.445723   0.314037   0.934114   x 
            x  Ni         136         0.067724   0.813893   0.812089   x 
            x  Ni         137         0.070212   0.567584   0.815392   x 
            x  Ni         138         0.315365   0.689334   0.939350   x 
            x  Ni         139         0.442906   0.687719   0.812873   x 
            x  Ni         140         0.191693   0.690698   0.812008   x 
            x  Ni         141         0.195641   0.817522   0.940247   x 
            x  Ni         142         0.191267   0.937535   0.809856   x 
            x  Ni         143         0.317875   0.938616   0.938938   x 
            x  Ni         144         0.442680   0.933115   0.811579   x 
            x  Ni         145         0.064583   0.062960   0.064085   x 
            x  Ni         146         0.448811   0.062527   0.187108   x 
            x  Ni         147         0.322385   0.066153   0.063907   x 
            x  Ni         148         0.063892   0.432233   0.186387   x 
            x  Ni         149         0.063109   0.309431   0.061590   x 
            x  Ni         150         0.194414   0.302224   0.189622   x 
            x  Ni         151         0.449256   0.312302   0.187548   x 
            x  Ni         152         0.444179   0.437112   0.062069   x 
            x  Ni         153         0.322241   0.307239   0.061540   x 
            x  Ni         154         0.064849   0.685129   0.184495   x 
            x  Ni         155         0.192741   0.554324   0.182560   x 
            x  Ni         156         0.192077   0.685552   0.064077   x 
            x  Ni         157         0.318103   0.685129   0.186129   x 
            x  Ni         158         0.445022   0.560721   0.185234   x 
            x  Ni         159         0.443420   0.685099   0.063460   x 
            x  Ni         160         0.316111   0.555367   0.064626   x 
            x  Ni         161         0.065442   0.940075   0.186032   x 
            x  Ni         162         0.191463   0.812806   0.189576   x 
            x  Ni         163         0.068852   0.815918   0.064964   x 
            x  Ni         164         0.320651   0.940455   0.189345   x 
            x  Ni         165         0.445927   0.811338   0.185159   x 
            x  Ni         166         0.444617   0.936883   0.063691   x 
            x  Ni         167         0.317970   0.813377   0.066307   x 
            x  Ni         168         0.064786   0.185174   0.432997   x 
            x  Ni         169         0.194470   0.057734   0.432478   x 
            x  Ni         170         0.194522   0.073757   0.188091   x 
            x  Ni         171         0.063901   0.063440   0.307649   x 
            x  Ni         172         0.320105   0.189823   0.436026   x 
            x  Ni         173         0.447040   0.062506   0.437272   x 
            x  Ni         174         0.446163   0.189319   0.313556   x 
            x  Ni         175         0.323322   0.065024   0.311846   x 
            x  Ni         176         0.067453   0.563950   0.556275   x 
            x  Ni         177         0.194886   0.312850   0.438700   x 
            x  Ni         178         0.194592   0.432513   0.307906   x 
            x  Ni         179         0.064006   0.311324   0.312163   x 
            x  Ni         180         0.443382   0.186261   0.563236   x 
            x  Ni         181         0.446369   0.436407   0.311953   x 
            x  Ni         182         0.443603   0.314114   0.436211   x 
            x  Ni         183         0.068262   0.685511   0.428535   x 
            x  Ni         184         0.194721   0.564152   0.431466   x 
            x  Ni         185         0.065306   0.560771   0.305808   x 
            x  Ni         186         0.444740   0.563394   0.435362   x 
            x  Ni         187         0.444405   0.687121   0.309814   x 
            x  Ni         188         0.320432   0.562193   0.308102   x 
            x  Ni         189         0.066651   0.936200   0.428458   x 
            x  Ni         190         0.320322   0.811202   0.309361   x 
            x  Ni         191         0.445602   0.810649   0.436078   x 
            x  Ni         192         0.446428   0.936678   0.310076   x 
            xxxxxxxxxxxxxxxxxxxxxxxxxxxxxxxxxxxxxxxxxxxxxxxxxxxxxxxxxxxx
 
 
                         No user defined ionic velocities
 
                           -------------------------------
                                   Details of Species
                           -------------------------------
 
                               Mass of species in AMU
                                    Al   26.9815400
                                    Ni   58.6934000
 
                          Electric Quadrupole Moment (Barn)
                                    Al    0.1466000 Isotope 27
                                    Ni    0.1620000 Isotope 61
 
                          Files used for pseudopotentials:
                                    Al 3|2.2|2.2|1.4|4|5|5|30:31:32U2U2
                                    Ni 3|2.4|2.4|1.0|8|9|10|40:41:32U2U2(qc=5.5)
 
                           -------------------------------
                              k-Points For BZ Sampling
                           -------------------------------
                       MP grid size for SCF calculation is  1  1  1
                            with an offset of   0.000  0.000  0.000
                       Number of kpoints used =             1
 
                           -------------------------------
                               Symmetry and Constraints
                           -------------------------------
 
                      Maximum deviation from symmetry =  0.00000         ANG
 
                      Number of symmetry operations   =           1
                      Number of ionic constraints     =           3
                      Point group of crystal =     1: C1, 1, 1
                      Space group of crystal =     1: P1, P 1
 
             Set iprint > 1 for details on symmetry rotations/translations
 
                         Centre of mass is constrained
             Set iprint > 1 for details of linear ionic constraints
 
                         Number of cell constraints= 6
                         Cell constraints are:  0 0 0 0 0 0
 
                         External pressure/stress (GPa)
                          0.00000   0.00000   0.00000
                                    0.00000   0.00000
                                              0.00000
  
+---------------- MEMORY AND SCRATCH DISK ESTIMATES PER PROCESS --------------+
|                                                     Memory          Disk    |
| Baseline code, static data and system overhead      622.0 MB         0.0 MB |
| BLAS internal memory storage                          0.0 MB         0.0 MB |
| Model and support data                              741.5 MB         0.0 MB |
| Electronic energy minimisation requirements         236.0 MB         0.0 MB |
| Force calculation requirements                        7.9 MB         0.0 MB |
|                                               ----------------------------- |
| Approx. total storage required per process         1599.5 MB         0.0 MB |
|                                                                             |
| Requirements will fluctuate during execution and may exceed these estimates |
+-----------------------------------------------------------------------------+
Calculating total energy with cut-off of  900.000 eV.
------------------------------------------------------------------------ <-- SCF
SCF loop      Energy           Fermi           Energy gain       Timer   <-- SCF
                               energy          per atom          (sec)   <-- SCF
------------------------------------------------------------------------ <-- SCF
Initial  -2.19158916E+005  0.00000000E+000                        20.56  <-- SCF
      1  -2.63643202E+005  7.15580197E+000   1.74448181E+002     105.48  <-- SCF
      2  -2.70648246E+005  3.64529067E+000   2.74707621E+001     187.20  <-- SCF
      3  -2.71369667E+005  3.53654160E+000   2.82910004E+000     268.99  <-- SCF
      4  -2.71427104E+005  3.64370165E+000   2.25243773E-001     347.02  <-- SCF
      5  -2.71709688E+005  6.62165133E+000   1.10817100E+000     441.87  <-- SCF
      6  -2.71508441E+005  5.53027215E+000  -7.89200859E-001     549.47  <-- SCF
      7  -2.71403278E+005  4.53211247E+000  -4.12405194E-001     648.31  <-- SCF
      8  -2.71387406E+005  4.41105312E+000  -6.22425954E-002     750.83  <-- SCF
      9  -2.71400031E+005  4.48831435E+000   4.95090903E-002     845.04  <-- SCF
     10  -2.71398826E+005  4.45602845E+000  -4.72691832E-003     947.98  <-- SCF
     11  -2.72335333E+005  6.27282351E+000   3.67257685E+000    1049.99  <-- SCF
     12  -2.72350422E+005  6.24065150E+000   5.91743390E-002    1137.16  <-- SCF
     13  -2.71508041E+005  4.80734324E+000  -3.30345537E+000    1265.53  <-- SCF
     14  -2.71591891E+005  4.83326749E+000   3.28823439E-001    1345.97  <-- SCF
     15  -2.71436149E+005  4.30824116E+000  -6.10753631E-001    1456.35  <-- SCF
     16  -2.71399447E+005  4.19604456E+000  -1.43930485E-001    1557.11  <-- SCF
     17  -2.71393283E+005  4.24541105E+000  -2.41692669E-002    1649.99  <-- SCF
     18  -2.71390965E+005  4.30976796E+000  -9.09282014E-003    1744.37  <-- SCF
     19  -2.71388284E+005  4.35351455E+000  -1.05128924E-002    1837.38  <-- SCF
     20  -2.71386989E+005  4.34642185E+000  -5.07931204E-003    1931.44  <-- SCF
     21  -2.71386509E+005  4.34031902E+000  -1.88104689E-003    2025.78  <-- SCF
     22  -2.71386274E+005  4.33579255E+000  -9.20451150E-004    2119.06  <-- SCF
     23  -2.71386050E+005  4.34257145E+000  -8.78150821E-004    2212.94  <-- SCF
     24  -2.71385908E+005  4.35558630E+000  -5.59058320E-004    2305.39  <-- SCF
     25  -2.71385834E+005  4.36021045E+000  -2.90260082E-004    2397.45  <-- SCF
     26  -2.71385690E+005  4.36617451E+000  -5.65649633E-004    2492.95  <-- SCF
     27  -2.71385626E+005  4.36773888E+000  -2.50560123E-004    2588.20  <-- SCF
     28  -2.71385617E+005  4.36875677E+000  -3.40920989E-005    2683.48  <-- SCF
     29  -2.71385598E+005  4.37262295E+000  -7.41277777E-005    2777.98  <-- SCF
     30  -2.71385595E+005  4.37338692E+000  -1.12866792E-005    2872.96  <-- SCF
     31  -2.71385597E+005  4.37409450E+000   7.62365136E-006    2960.49  <-- SCF
     32  -2.71385594E+005  4.37488891E+000  -1.20832176E-005    3051.02  <-- SCF
     33  -2.71385594E+005  4.37497214E+000  -8.01815994E-007    3113.65  <-- SCF
     34  -2.71385594E+005  4.37504690E+000   5.52243039E-007    3175.12  <-- SCF
------------------------------------------------------------------------ <-- SCF
 
Integrated Spin Density     =    0.147186     hbar/2                        
Integrated |Spin Density|   =    0.229505     hbar/2                        
 
Final energy, E             =  -271381.0026093     eV
Final free energy (E-TS)    =  -271385.5940375     eV
(energies not corrected for finite basis set)
 
NB est. 0K energy (E-0.5TS)      =  -271383.2983234     eV
 

Writing analysis data to castep.castep_bin

Writing model to castep.check
 
+---------------- MEMORY AND SCRATCH DISK ESTIMATES PER PROCESS --------------+
|                                                     Memory          Disk    |
| Model and support data                              750.6 MB         0.0 MB |
| Electronic energy minimisation requirements         236.0 MB         0.0 MB |
| Geometry minimisation requirements                  309.4 MB         0.0 MB |
|                                               ----------------------------- |
| Approx. total storage required per process         1296.0 MB         0.0 MB |
|                                                                             |
| Requirements will fluctuate during execution and may exceed these estimates |
+-----------------------------------------------------------------------------+
 
 
 ************************************** Forces **************************************
 *                                                                                  *
 *                           Cartesian components (eV/A)                            *
 * -------------------------------------------------------------------------------- *
 *                         x                    y                    z              *
 *                                                                                  *
 * Al              1     -0.07992             -0.02130             -0.01668         *
 * Al              2      0.03589             -0.03709             -0.01308         *
 * Al              3     -0.12538             -0.03058             -0.09785         *
 * Al              4      0.05760             -0.00298              0.01542         *
 * Al              5     -0.00465              0.04542             -0.10893         *
 * Al              6      0.09530              0.02774              0.00643         *
 * Al              7     -0.15233              0.04164             -0.03010         *
 * Al              8      0.07687              0.00551             -0.02885         *
 * Al              9     -0.04794              0.00793              0.00387         *
 * Al             10      0.03703              0.01739             -0.02003         *
 * Al             11     -0.05040             -0.03652              0.00485         *
 * Al             12      0.09076              0.00107             -0.01327         *
 * Al             13      0.20128             -0.01462             -0.01566         *
 * Al             14      0.04777             -0.03678             -0.03604         *
 * Al             15      0.00298              0.02379             -0.13031         *
 * Al             16      0.07661              0.01203             -0.02835         *
 * Al             17     -0.17001             -0.01743              0.01147         *
 * Al             18      0.03823              0.02149              0.00560         *
 * Al             19     -0.16072             -0.03164              0.09019         *
 * Al             20      0.07373              0.01426             -0.00207         *
 * Al             21     -0.01393              0.00317              0.10325         *
 * Al             22      0.09761             -0.01786             -0.00377         *
 * Al             23      0.03306              0.02142              0.12871         *
 * Al             24      0.02097             -0.00482             -0.01382         *
 * Al             25     -0.20650              0.03127             -0.00187         *
 * Al             26     -0.01607             -0.02378              0.01000         *
 * Al             27     -0.22967              0.00950             -0.04014         *
 * Al             28      0.08355              0.02955             -0.01631         *
 * Al             29     -0.23778             -0.02438              0.01721         *
 * Al             30      0.04298             -0.00477              0.01617         *
 * Al             31     -0.17728              0.02246              0.02093         *
 * Al             32      0.08568             -0.01919              0.03872         *
 * Al             33      0.15012              0.10126              0.13374         *
 * Al             34      0.33309              0.20919              0.30161         *
 * Al             35     -0.05999             -0.03350             -0.08458         *
 * Al             36      0.15927              0.06416              0.23766         *
 * Al             37     -0.05510             -0.26938             -0.03809         *
 * Al             38      0.08938              0.03104             -0.22489         *
 * Al             39     -0.50255             -0.29384              0.54634         *
 * Al             40      0.12848             -0.17754             -0.02658         *
 * Al             41     -0.71685             -0.00329              0.57183         *
 * Al             42      0.13368              0.11692              0.03889         *
 * Al             43      0.01798             -0.14812             -0.08056         *
 * Al             44      0.12023             -0.11633             -0.12063         *
 * Al             45      0.07759             -0.08182              0.04705         *
 * Al             46     -0.13207              0.08388             -0.08233         *
 * Al             47     -0.54354             -0.08266              0.00792         *
 * Al             48     -0.23227             -0.07060             -0.02505         *
 * Al             49      0.02224              0.18023              0.14791         *
 * Al             50     -0.32424              0.04001             -0.06658         *
 * Al             51     -0.51046             -0.08666             -0.68788         *
 * Al             52     -0.06788             -0.08295              0.03134         *
 * Al             53     -0.59445             -0.00549             -0.67597         *
 * Al             54      0.11045             -0.07156             -0.19492         *
 * Al             55      0.05489              0.36758              0.08048         *
 * Al             56      0.29816             -0.09883             -0.01555         *
 * Al             57     -0.26802             -0.18316             -0.09260         *
 * Al             58     -0.11035              0.02888              0.14898         *
 * Al             59      0.05464             -0.07963             -0.17498         *
 * Al             60     -0.19241             -0.02028             -0.12334         *
 * Al             61     -0.10054             -0.11167             -0.01459         *
 * Al             62     -0.06473              0.15983              0.20860         *
 * Al             63     -0.37093              0.20115              0.04107         *
 * Ni              1     -0.01291             -0.00832             -0.07043         *
 * Ni              2      0.01635             -0.01472              0.00744         *
 * Ni              3      0.04633              0.00403             -0.01846         *
 * Ni              4      0.09515             -0.01944             -0.02022         *
 * Ni              5      0.10860             -0.11923             -0.06574         *
 * Ni              6      0.05274              0.02583             -0.11160         *
 * Ni              7      0.08641              0.04505              0.09937         *
 * Ni              8      0.10104             -0.02892              0.00548         *
 * Ni              9     -0.02014              0.02607              0.01129         *
 * Ni             10      0.02002              0.00671              0.03293         *
 * Ni             11      0.27690             -0.05263             -0.08486         *
 * Ni             12      0.08976              0.15377             -0.08105         *
 * Ni             13      0.12381             -0.07863              0.15488         *
 * Ni             14     -0.01822             -0.00332              0.00245         *
 * Ni             15     -0.06924             -0.01984              0.01916         *
 * Ni             16     -0.02563              0.02420             -0.01468         *
 * Ni             17      0.11428              0.18417              0.00698         *
 * Ni             18      0.16377             -0.02259             -0.15703         *
 * Ni             19      0.00447             -0.02317              0.10083         *
 * Ni             20      0.07106              0.01761             -0.00352         *
 * Ni             21     -0.00009             -0.00712             -0.01774         *
 * Ni             22      0.03442             -0.00024             -0.01696         *
 * Ni             23      0.22334             -0.03832             -0.05047         *
 * Ni             24      0.02619             -0.20368             -0.15419         *
 * Ni             25      0.14109              0.01698              0.01255         *
 * Ni             26      0.10733              0.05260             -0.00229         *
 * Ni             27      0.01963             -0.00024              0.00967         *
 * Ni             28      0.02968              0.01767             -0.03940         *
 * Ni             29      0.08923              0.02852              0.04331         *
 * Ni             30      0.16772             -0.11592             -0.08928         *
 * Ni             31      0.18068              0.15283             -0.08416         *
 * Ni             32      0.06833             -0.04387              0.02115         *
 * Ni             33     -0.04006              0.04746              0.00834         *
 * Ni             34     -0.02408             -0.06250             -0.02431         *
 * Ni             35      0.12859             -0.01262              0.03161         *
 * Ni             36      0.24892              0.14139              0.07682         *
 * Ni             37      0.22659              0.02672             -0.05095         *
 * Ni             38      0.06111             -0.01433             -0.00091         *
 * Ni             39     -0.08749             -0.02460              0.01575         *
 * Ni             40     -0.00615             -0.02867             -0.02286         *
 * Ni             41      0.38729              0.03799             -0.03932         *
 * Ni             42      0.27138              0.07067             -0.05944         *
 * Ni             43      0.09913             -0.14692              0.00181         *
 * Ni             44      0.10977              0.01074              0.00018         *
 * Ni             45     -0.02659             -0.01252              0.02244         *
 * Ni             46      0.02592              0.06672             -0.00678         *
 * Ni             47     -0.05823              0.12396              0.10187         *
 * Ni             48     -0.03836             -0.20093             -0.09607         *
 * Ni             49      0.12145             -0.03094              0.08655         *
 * Ni             50      0.02695             -0.02156             -0.00288         *
 * Ni             51      0.03465              0.00553              0.01365         *
 * Ni             52      0.06104             -0.00690             -0.00210         *
 * Ni             53     -0.11888             -0.23636             -0.03793         *
 * Ni             54     -0.18546             -0.06878             -0.18588         *
 * Ni             55      0.07862              0.04134             -0.11246         *
 * Ni             56      0.03529              0.02422             -0.00847         *
 * Ni             57     -0.06255              0.00899             -0.00695         *
 * Ni             58     -0.03289              0.02398             -0.03201         *
 * Ni             59     -0.18844              0.15369             -0.00318         *
 * Ni             60      0.01328             -0.14328             -0.07250         *
 * Ni             61      0.08215              0.03859             -0.16091         *
 * Ni             62     -0.00533             -0.00708              0.00516         *
 * Ni             63     -0.09656              0.00351             -0.02727         *
 * Ni             64     -0.03289              0.00863              0.01658         *
 * Ni             65     -0.08664             -0.07631              0.07564         *
 * Ni             66      0.12541              0.03961             -0.03551         *
 * Ni             67      0.09521             -0.05027             -0.11161         *
 * Ni             68      0.00134             -0.00048             -0.00729         *
 * Ni             69     -0.03350             -0.02889             -0.01367         *
 * Ni             70     -0.00403             -0.03325             -0.00094         *
 * Ni             71     -0.23372              0.04279             -0.49067         *
 * Ni             72     -0.06963             -0.04568              0.15323         *
 * Ni             73      0.08710              0.00775              0.04821         *
 * Ni             74      0.03829             -0.00240              0.00002         *
 * Ni             75      0.03156              0.00364             -0.00589         *
 * Ni             76      0.00045             -0.03381              0.04406         *
 * Ni             77      0.02796             -0.09394             -0.16818         *
 * Ni             78     -0.26384              0.00047              0.20481         *
 * Ni             79      0.05603             -0.07982              0.13730         *
 * Ni             80      0.02117              0.01674             -0.00899         *
 * Ni             81     -0.00767              0.02132             -0.00415         *
 * Ni             82      0.00146             -0.00574             -0.00850         *
 * Ni             83     -0.09527             -0.04312             -0.17571         *
 * Ni             84     -0.11794             -0.02747             -0.12569         *
 * Ni             85      0.13379             -0.01884              0.05509         *
 * Ni             86      0.00106              0.01151              0.00078         *
 * Ni             87     -0.01320             -0.01457             -0.00631         *
 * Ni             88     -0.05652              0.02109              0.01924         *
 * Ni             89      0.08813              0.13627             -0.14632         *
 * Ni             90     -0.28446             -0.38288             -0.14204         *
 * Ni             91      0.14873              0.05671              0.01239         *
 * Ni             92      0.01483             -0.03761              0.01395         *
 * Ni             93     -0.00156             -0.00490             -0.02651         *
 * Ni             94      0.01762              0.01463              0.01729         *
 * Ni             95     -0.09208             -0.08655              0.09899         *
 * Ni             96     -0.34305              0.27172             -0.12700         *
 * Ni             97     -0.08213              0.38800              0.11693         *
 * Ni             98      0.07241             -0.09228              0.18190         *
 * Ni             99      0.09417              0.29790              0.19687         *
 * Ni            100     -0.01225              0.13710              0.07560         *
 * Ni            101     -0.21478              0.05179             -0.04626         *
 * Ni            102      0.17724             -0.19044              0.13460         *
 * Ni            103      0.05596             -0.08651             -0.01440         *
 * Ni            104      0.25198             -0.28401              0.49559         *
 * Ni            105      0.11768             -0.19121              0.04698         *
 * Ni            106     -0.22955              0.02568              0.07012         *
 * Ni            107     -0.02073             -0.05304             -0.04698         *
 * Ni            108     -0.09529              0.03954             -0.00047         *
 * Ni            109      0.12596              0.01868              0.12653         *
 * Ni            110     -0.19574             -0.12630              0.14839         *
 * Ni            111     -0.24835              0.06908             -0.09343         *
 * Ni            112      0.01943             -0.12594             -0.04532         *
 * Ni            113      0.25116              0.14115              0.01667         *
 * Ni            114     -0.00265              0.11182             -0.06830         *
 * Ni            115     -0.06033              0.01670              0.15632         *
 * Ni            116      0.10748              0.25915              0.18747         *
 * Ni            117      0.07183              0.03611              0.12472         *
 * Ni            118      0.10932              0.00681              0.14366         *
 * Ni            119      0.16668              0.11687              0.00853         *
 * Ni            120     -0.02768              0.04069             -0.27322         *
 * Ni            121     -0.10295             -0.10416              0.24872         *
 * Ni            122     -0.17119             -0.03840              0.14975         *
 * Ni            123      0.01220              0.18736             -0.17472         *
 * Ni            124      0.08376              0.05215             -0.05127         *
 * Ni            125      0.23325              0.31344             -0.10827         *
 * Ni            126     -0.22942             -0.11793              0.06573         *
 * Ni            127     -0.09584             -0.04854             -0.13649         *
 * Ni            128     -0.20651             -0.13343              0.02128         *
 * Ni            129      0.05143              0.15527             -0.19073         *
 * Ni            130     -0.02951             -0.26627             -0.13139         *
 * Ni            131     -0.00605             -0.04699              0.00034         *
 * Ni            132      0.21499             -0.05721              0.02969         *
 * Ni            133      0.13820             -0.00663              0.00850         *
 * Ni            134      0.11887              0.02099             -0.05065         *
 * Ni            135     -0.19787              0.04952              0.25712         *
 * Ni            136     -0.19348              0.05662             -0.15081         *
 * Ni            137     -0.37005             -0.35085             -0.02860         *
 * Ni            138      0.15217              0.13574              0.02610         *
 * Ni            139     -0.15687             -0.00126             -0.07168         *
 * Ni            140      0.16706             -0.07058             -0.02402         *
 * Ni            141     -0.13147              0.06304              0.19424         *
 * Ni            142      0.16076              0.00424             -0.11798         *
 * Ni            143      0.32218              0.13182             -0.22133         *
 * Ni            144     -0.09270             -0.03398              0.03570         *
 * Ni            145      0.20290              0.02784             -0.16994         *
 * Ni            146     -0.34223             -0.11280              0.07752         *
 * Ni            147      0.00859             -0.05689              0.06715         *
 * Ni            148      0.39742              0.07572             -0.01170         *
 * Ni            149      0.20088             -0.03358             -0.23400         *
 * Ni            150     -0.16269             -0.06532              0.09728         *
 * Ni            151     -0.06374             -0.03437             -0.11083         *
 * Ni            152     -0.01376             -0.01775             -0.12817         *
 * Ni            153      0.02934              0.16223              0.04296         *
 * Ni            154      0.20908              0.25503              0.03364         *
 * Ni            155     -0.00727             -0.09536              0.10093         *
 * Ni            156     -0.07330             -0.14433             -0.28674         *
 * Ni            157      0.26967              0.05883             -0.25349         *
 * Ni            158     -0.20932              0.11016              0.23509         *
 * Ni            159     -0.12953             -0.02130              0.08299         *
 * Ni            160     -0.18024              0.26176              0.22539         *
 * Ni            161     -0.02953              0.05634              0.07849         *
 * Ni            162     -0.01138             -0.12473              0.09328         *
 * Ni            163      0.00216              0.06960              0.21851         *
 * Ni            164      0.31440             -0.10880             -0.07769         *
 * Ni            165     -0.31968              0.04517              0.16522         *
 * Ni            166     -0.09365             -0.02075             -0.02964         *
 * Ni            167     -0.08415             -0.12946              0.12236         *
 * Ni            168     -0.09213              0.18756              0.25845         *
 * Ni            169     -0.01490             -0.10451             -0.04984         *
 * Ni            170      0.04794              0.26825             -0.03535         *
 * Ni            171      0.26801              0.05412              0.33851         *
 * Ni            172      0.31735             -0.30806              0.22035         *
 * Ni            173     -0.28166              0.27832             -0.09609         *
 * Ni            174      0.12419             -0.08847              0.20150         *
 * Ni            175      0.08611              0.06828             -0.00676         *
 * Ni            176     -0.04321              0.04469              0.24402         *
 * Ni            177     -0.01251             -0.04625             -0.04289         *
 * Ni            178     -0.17862              0.10750             -0.16234         *
 * Ni            179      0.45751             -0.07183             -0.04619         *
 * Ni            180      0.05046             -0.08604             -0.00900         *
 * Ni            181      0.19925              0.06459              0.04696         *
 * Ni            182     -0.08325             -0.15249             -0.12629         *
 * Ni            183      0.05521              0.12779              0.37692         *
 * Ni            184     -0.11642              0.12204              0.03796         *
 * Ni            185      0.22609             -0.02641              0.03060         *
 * Ni            186     -0.03301             -0.14615             -0.13404         *
 * Ni            187     -0.07787             -0.07900             -0.17031         *
 * Ni            188      0.08530              0.05132             -0.07649         *
 * Ni            189     -0.07061              0.10696              0.30230         *
 * Ni            190      0.12043             -0.01311             -0.18867         *
 * Ni            191     -0.05273              0.02230             -0.11304         *
 * Ni            192      0.06587              0.03162             -0.17963         *
 *                                                                                  *
 ************************************************************************************
 LBFGS: finished iteration     0 with enthalpy= -2.71385594E+005 eV
  
 +-----------+-----------------+-----------------+------------+-----+ <-- LBFGS
 | Parameter |      value      |    tolerance    |    units   | OK? | <-- LBFGS
 +-----------+-----------------+-----------------+------------+-----+ <-- LBFGS
 |  dE/ion   |   0.000000E+000 |   2.000000E-005 |         eV | No  | <-- LBFGS
 |  |F|max   |   9.169933E-001 |   5.000000E-002 |       eV/A | No  | <-- LBFGS
 |  |dR|max  |   0.000000E+000 |   1.000000E-003 |          A | No  | <-- LBFGS
 +-----------+-----------------+-----------------+------------+-----+ <-- LBFGS
  

================================================================================
 Starting LBFGS iteration          1 ...
================================================================================
  
 +------------+-------------+-------------+-----------------+ <-- min LBFGS
 |    Step    |   lambda    |   F.delta'  |    enthalpy     | <-- min LBFGS
 +------------+-------------+-------------+-----------------+ <-- min LBFGS
 |  previous  |    0.000000 |    2.072403 |  -271385.594038 | <-- min LBFGS
 +------------+-------------+-------------+-----------------+ <-- min LBFGS
  

--------------------------------------------------------------------------------
 LBFGS: starting iteration         1 with trial guess (lambda=  1.000000)
--------------------------------------------------------------------------------
 
                           -------------------------------
                                     Cell Contents
                           -------------------------------
 
            xxxxxxxxxxxxxxxxxxxxxxxxxxxxxxxxxxxxxxxxxxxxxxxxxxxxxxxxxxxxxxxxx
            x  Element         Atom        Fractional coordinates of atoms  x
            x                 Number           u          v          w      x
            x---------------------------------------------------------------x
            x  Al                1         0.569660   0.062006   0.562603   x
            x  Al                2         0.817705   0.062451   0.561962   x
            x  Al                3         0.569071   0.313418   0.562007   x
            x  Al                4         0.817941   0.312117   0.562119   x
            x  Al                5         0.574055   0.563098   0.556816   x
            x  Al                6         0.819119   0.562269   0.560843   x
            x  Al                7         0.570306   0.811131   0.561940   x
            x  Al                8         0.818919   0.812647   0.561037   x
            x  Al                9         0.568747   0.060096   0.810227   x
            x  Al               10         0.817164   0.062183   0.811376   x
            x  Al               11         0.569015   0.314462   0.810087   x
            x  Al               12         0.817060   0.312406   0.811265   x
            x  Al               13         0.576133   0.564471   0.812013   x
            x  Al               14         0.818729   0.562379   0.811506   x
            x  Al               15         0.572160   0.810088   0.807758   x
            x  Al               16         0.818713   0.812284   0.811309   x
            x  Al               17         0.571786   0.060758   0.060830   x
            x  Al               18         0.817231   0.062742   0.060831   x
            x  Al               19         0.571136   0.313265   0.059867   x
            x  Al               20         0.817130   0.311748   0.060909   x
            x  Al               21         0.574508   0.562560   0.065392   x
            x  Al               22         0.819285   0.562008   0.062019   x
            x  Al               23         0.575951   0.811232   0.067294   x
            x  Al               24         0.819048   0.812595   0.061817   x
            x  Al               25         0.571643   0.062550   0.312719   x
            x  Al               26         0.817920   0.062776   0.312074   x
            x  Al               27         0.572487   0.312160   0.313153   x
            x  Al               28         0.817885   0.311616   0.311684   x
            x  Al               29         0.571779   0.562376   0.311331   x
            x  Al               30         0.819738   0.561878   0.311729   x
            x  Al               31         0.571558   0.811978   0.310803   x
            x  Al               32         0.819586   0.813065   0.312237   x
            x  Al               33         0.328524   0.936486   0.432700   x
            x  Al               34         0.056422   0.810856   0.306210   x
            x  Al               35         0.192852   0.943806   0.303661   x
            x  Al               36         0.321586   0.687383   0.436681   x
            x  Al               37         0.192414   0.682319   0.302266   x
            x  Al               38         0.326039   0.312159   0.562239   x
            x  Al               39         0.072820   0.441637   0.428544   x
            x  Al               40         0.198450   0.942998   0.072152   x
            x  Al               41         0.066278   0.558965   0.064322   x
            x  Al               42         0.323699   0.427367   0.195489   x
            x  Al               43         0.193407   0.420791   0.062631   x
            x  Al               44         0.330102   0.190720   0.189457   x
            x  Al               45         0.318134   0.440046   0.427372   x
            x  Al               46         0.189990   0.187119   0.055943   x
            x  Al               47         0.062016   0.189030   0.188070   x
            x  Al               48         0.317605   0.813450   0.810869   x
            x  Al               49         0.439299   0.810614   0.944065   x
            x  Al               50         0.186923   0.807621   0.683233   x
            x  Al               51         0.068430   0.938093   0.940480   x
            x  Al               52         0.432908   0.563435   0.937439   x
            x  Al               53         0.071283   0.698834   0.940926   x
            x  Al               54         0.201125   0.561293   0.931676   x
            x  Al               55         0.325187   0.317985   0.807361   x
            x  Al               56         0.329449   0.181427   0.936893   x
            x  Al               57         0.184088   0.176892   0.810964   x
            x  Al               58         0.187451   0.940213   0.555239   x
            x  Al               59         0.433613   0.564826   0.685822   x
            x  Al               60         0.191981   0.563915   0.685228   x
            x  Al               61         0.187534   0.177782   0.553975   x
            x  Al               62         0.194864   0.187772   0.321536   x
            x  Al               63         0.180008   0.319167   0.682542   x
            x  Ni                1         0.567807   0.186579   0.686758   x
            x  Ni                2         0.693205   0.061676   0.686665   x
            x  Ni                3         0.693025   0.187568   0.562420   x
            x  Ni                4         0.817124   0.187634   0.686857   x
            x  Ni                5         0.941882   0.062681   0.686674   x
            x  Ni                6         0.942208   0.187505   0.561847   x
            x  Ni                7         0.567431   0.442935   0.684792   x
            x  Ni                8         0.691755   0.313484   0.686419   x
            x  Ni                9         0.694550   0.437297   0.561097   x
            x  Ni               10         0.818296   0.437150   0.686426   x
            x  Ni               11         0.942200   0.312276   0.686685   x
            x  Ni               12         0.942606   0.436964   0.561448   x
            x  Ni               13         0.567248   0.683940   0.684795   x
            x  Ni               14         0.695573   0.563011   0.685255   x
            x  Ni               15         0.695084   0.687765   0.560343   x
            x  Ni               16         0.819355   0.687511   0.685894   x
            x  Ni               17         0.942593   0.562035   0.686301   x
            x  Ni               18         0.943168   0.687237   0.561118   x
            x  Ni               19         0.567484   0.936234   0.685746   x
            x  Ni               20         0.694208   0.811280   0.685343   x
            x  Ni               21         0.693364   0.936891   0.561483   x
            x  Ni               22         0.818075   0.937118   0.686315   x
            x  Ni               23         0.942879   0.812482   0.686290   x
            x  Ni               24         0.942688   0.937815   0.561550   x
            x  Ni               25         0.448997   0.186549   0.060797   x
            x  Ni               26         0.691851   0.061171   0.935202   x
            x  Ni               27         0.692049   0.187337   0.811052   x
            x  Ni               28         0.816717   0.187312   0.935824   x
            x  Ni               29         0.941813   0.062720   0.936353   x
            x  Ni               30         0.941682   0.187516   0.811516   x
            x  Ni               31         0.566914   0.441649   0.937360   x
            x  Ni               32         0.691841   0.313104   0.935330   x
            x  Ni               33         0.693722   0.437884   0.811304   x
            x  Ni               34         0.818131   0.437123   0.936350   x
            x  Ni               35         0.941815   0.312180   0.936410   x
            x  Ni               36         0.942311   0.437151   0.811548   x
            x  Ni               37         0.566588   0.686911   0.938642   x
            x  Ni               38         0.694975   0.563329   0.937567   x
            x  Ni               39         0.695520   0.687804   0.811384   x
            x  Ni               40         0.819486   0.687556   0.936806   x
            x  Ni               41         0.942718   0.562003   0.936710   x
            x  Ni               42         0.942886   0.687199   0.811439   x
            x  Ni               43         0.567618   0.932574   0.936816   x
            x  Ni               44         0.693641   0.811071   0.936753   x
            x  Ni               45         0.693416   0.936058   0.811055   x
            x  Ni               46         0.818002   0.937125   0.936112   x
            x  Ni               47         0.943006   0.812551   0.936651   x
            x  Ni               48         0.942257   0.937561   0.811410   x
            x  Ni               49         0.569384   0.187293   0.186721   x
            x  Ni               50         0.693937   0.062586   0.186691   x
            x  Ni               51         0.692265   0.187150   0.060245   x
            x  Ni               52         0.817551   0.187281   0.186133   x
            x  Ni               53         0.942329   0.063022   0.186386   x
            x  Ni               54         0.941804   0.187506   0.061189   x
            x  Ni               55         0.569688   0.437189   0.187201   x
            x  Ni               56         0.693400   0.311864   0.186309   x
            x  Ni               57         0.694778   0.437119   0.061566   x
            x  Ni               58         0.818741   0.436358   0.186659   x
            x  Ni               59         0.942146   0.311915   0.186369   x
            x  Ni               60         0.942299   0.436694   0.061579   x
            x  Ni               61         0.569936   0.686207   0.188376   x
            x  Ni               62         0.696277   0.561932   0.187977   x
            x  Ni               63         0.696307   0.687091   0.062770   x
            x  Ni               64         0.820038   0.687368   0.187305   x
            x  Ni               65         0.943066   0.561747   0.186742   x
            x  Ni               66         0.943207   0.687302   0.061874   x
            x  Ni               67         0.570144   0.937487   0.187563   x
            x  Ni               68         0.696583   0.812472   0.188386   x
            x  Ni               69         0.695106   0.937248   0.061589   x
            x  Ni               70         0.818893   0.938188   0.187007   x
            x  Ni               71         0.943199   0.812794   0.186663   x
            x  Ni               72         0.942303   0.937919   0.061504   x
            x  Ni               73         0.568476   0.187835   0.438197   x
            x  Ni               74         0.693114   0.062193   0.437758   x
            x  Ni               75         0.693799   0.187152   0.312270   x
            x  Ni               76         0.817882   0.187161   0.437274   x
            x  Ni               77         0.942610   0.062876   0.436724   x
            x  Ni               78         0.942133   0.187458   0.311580   x
            x  Ni               79         0.569335   0.437913   0.435860   x
            x  Ni               80         0.694063   0.312175   0.437623   x
            x  Ni               81         0.694935   0.436720   0.311742   x
            x  Ni               82         0.818897   0.436670   0.436533   x
            x  Ni               83         0.942375   0.311977   0.436649   x
            x  Ni               84         0.942761   0.436515   0.311524   x
            x  Ni               85         0.568653   0.687741   0.434891   x
            x  Ni               86         0.695882   0.562483   0.435207   x
            x  Ni               87         0.695748   0.687509   0.311949   x
            x  Ni               88         0.819598   0.687789   0.436265   x
            x  Ni               89         0.943063   0.561936   0.436358   x
            x  Ni               90         0.943585   0.687312   0.311643   x
            x  Ni               91         0.567584   0.936186   0.436997   x
[...]
             Al 51 -- Ni 142                 0.18        -0.00          2.58724
             Al 3  -- Ni 108                 0.18        -0.00          2.58732
            Ni 129 -- Ni 132                 0.13         0.00          2.58751
            Ni 36  -- Ni 129                 0.12        -0.00          2.58762
             Al 42 -- Ni 158                 0.15         0.00          2.58782
            Ni 126 -- Ni 147                 0.09         0.00          2.58799
             Al 28 -- Ni 76                  0.20         0.00          2.58801
             Al 48 -- Ni 141                 0.18        -0.00          2.58806
             Al 21 -- Ni 37                  0.20        -0.00          2.58811
            Ni 102 -- Ni 131                -0.04        -0.00          2.58838
             Al 14 -- Ni 16                  0.19         0.00          2.58884
            Ni 184 -- Ni 188                -0.03         0.00          2.58951
             Al 7  -- Ni 13                  0.20        -0.00          2.58963
            Ni 13  -- Ni 39                  0.02        -0.00          2.58970
             Al 9  -- Ni 127                 0.19        -0.00          2.58975
            Ni 102 -- Ni 111                 0.08        -0.00          2.58977
             Al 60 -- Ni 140                 0.17        -0.00          2.58986
            Ni 29  -- Ni 48                  0.02        -0.00          2.58995
            Ni 138 -- Ni 139                -0.01         0.00          2.58997
             Al 27 -- Ni 55                  0.18        -0.00          2.59015
             Al 60 -- Ni 131                 0.17        -0.00          2.59077
             Al 36 -- Ni 190                 0.18         0.00          2.59091
            Ni 131 -- Ni 133                 0.03         0.00          2.59099
             Al 15 -- Ni 139                 0.18        -0.00          2.59111
            Ni 116 -- Ni 118                 0.02        -0.00          2.59137
            Ni 34  -- Ni 41                  0.07        -0.00          2.59162
             Al 15 -- Ni 37                  0.20        -0.00          2.59175
            Ni 37  -- Ni 38                  0.08         0.00          2.59180
            Ni 71  -- Ni 96                  0.01         0.00          2.59185
             Al 21 -- Ni 159                 0.16         0.00          2.59197
             Al 1  -- Ni 101                 0.17        -0.00          2.59203
            Ni 105 -- Ni 131                 0.02        -0.00          2.59204
             Al 19 -- Ni 134                 0.19         0.00          2.59223
            Ni 13  -- Ni 120                 0.04        -0.00          2.59237
             Al 17 -- Ni 43                  0.19         0.00          2.59254
             Al 49 -- Ni 144                 0.17         0.00          2.59274
             Al 34 -- Ni 162                 0.16        -0.00          2.59295
            Ni 1   -- Ni 101                 0.03        -0.00          2.59300
            Ni 108 -- Ni 182                 0.03         0.00          2.59328
            Ni 68  -- Ni 69                  0.02         0.00          2.59336
             Al 5  -- Ni 115                 0.16        -0.00          2.59383
            Ni 143 -- Ni 147                 0.09         0.00          2.59426
             Al 60 -- Ni 102                 0.20        -0.00          2.59441
            Ni 67  -- Ni 165                 0.02         0.00          2.59444
             Al 3  -- Ni 7                   0.20         0.00          2.59447
            Ni 111 -- Ni 115                 0.04        -0.00          2.59475
             Al 11 -- Ni 127                 0.18        -0.00          2.59494
            Ni 159 -- Ni 167                 0.10         0.00          2.59504
            Ni 150 -- Ni 178                 0.18        -0.00          2.59560
            Ni 155 -- Ni 188                 0.03         0.00          2.59570
            Ni 103 -- Ni 169                -0.03        -0.00          2.59577
             Al 51 -- Ni 124                 0.20        -0.00          2.59582
             Al 19 -- Ni 31                  0.20         0.00          2.59593
             Al 17 -- Ni 49                  0.19         0.00          2.59632
             Al 33 -- Ni 169                 0.19         0.00          2.59635
            Ni 124 -- Ni 147                 0.01         0.00          2.59638
            Ni 41  -- Ni 66                 -0.03        -0.00          2.59665
             Al 15 -- Ni 44                  0.20        -0.00          2.59700
            Ni 121 -- Ni 191                -0.00         0.00          2.59720
            Ni 126 -- Ni 128                 0.10         0.00          2.59738
            Ni 170 -- Ni 175                -0.03         0.00          2.59754
            Ni 101 -- Ni 144                 0.10        -0.00          2.59760
            Ni 25  -- Ni 135                -0.01         0.00          2.59771
            Ni 155 -- Ni 156                 0.07         0.00          2.59777
            Ni 41  -- Ni 42                  0.03        -0.00          2.59794
            Ni 113 -- Ni 139                 0.01         0.00          2.59796
             Al 17 -- Ni 134                 0.19         0.00          2.59808
             Al 40 -- Ni 141                 0.18         0.00          2.59887
             Al 40 -- Ni 163                 0.16        -0.00          2.59904
             Al 23 -- Ni 37                  0.19        -0.00          2.59966
            Ni 117 -- Ni 122                 0.04        -0.00          2.59994
            Ni 178 -- Ni 184                 0.03        -0.00          2.60028
            Ni 142 -- Ni 143                 0.05        -0.00          2.60034
            Ni 112 -- Ni 122                 0.11        -0.00          2.60044
            Ni 123 -- Ni 124                 0.01        -0.00          2.60051
             Al 11 -- Ni 7                   0.19         0.00          2.60071
             Al 5  -- Ni 108                 0.17        -0.00          2.60111
             Al 62 -- Ni 171                 0.12         0.00          2.60114
             Al 19 -- Ni 49                  0.20        -0.00          2.60115
            Ni 146 -- Ni 174                 0.01         0.00          2.60141
            Ni 104 -- Ni 105                 0.05        -0.00          2.60144
             Al 21 -- Ni 152                 0.16         0.00          2.60146
            Ni 31  -- Ni 32                  0.06         0.00          2.60216
             Al 59 -- Ni 13                  0.17         0.00          2.60219
             Al 42 -- Ni 153                 0.23         0.00          2.60232
            Ni 37  -- Ni 39                  0.02         0.00          2.60259
             Al 56 -- Ni 153                 0.18        -0.00          2.60340
            Ni 95  -- Ni 96                  0.01        -0.00          2.60366
             Al 45 -- Ni 111                 0.17         0.00          2.60368
             Al 61 -- Ni 100                 0.20        -0.00          2.60383
             Al 9  -- Ni 144                 0.18         0.00          2.60385
            Ni 117 -- Ni 191                 0.08        -0.00          2.60401
            Ni 7   -- Ni 8                   0.06        -0.00          2.60409
            Ni 111 -- Ni 113                 0.08        -0.00          2.60431
            Ni 172 -- Ni 177                 0.07        -0.00          2.60433
            Ni 110 -- Ni 112                 0.05        -0.00          2.60460
             Al 48 -- Ni 120                 0.19         0.00          2.60464
            Ni 35  -- Ni 129                 0.10        -0.00          2.60480
             Al 51 -- Ni 163                 0.17        -0.00          2.60539
            Ni 60  -- Ni 65                  0.01         0.00          2.60541
             Al 41 -- Ni 129                 0.19         0.00          2.60577
            Ni 161 -- Ni 162                -0.00         0.00          2.60694
            Ni 71  -- Ni 90                  0.02         0.00          2.60727
            Ni 53  -- Ni 54                  0.00        -0.00          2.60755
            Ni 98  -- Ni 99                 -0.00        -0.00          2.60834
            Ni 13  -- Ni 20                  0.05        -0.00          2.60885
            Ni 54  -- Ni 59                  0.00        -0.00          2.60909
            Ni 59  -- Ni 78                 -0.01        -0.00          2.60928
             Al 53 -- Ni 137                 0.18         0.00          2.61014
            Ni 42  -- Ni 47                 -0.01        -0.00          2.61090
            Ni 53  -- Ni 78                  0.00        -0.00          2.61109
             Al 50 -- Ni 142                 0.15        -0.00          2.61163
            Ni 145 -- Ni 170                 0.00         0.00          2.61216
            Ni 181 -- Ni 188                 0.09         0.00          2.61276
            Ni 121 -- Ni 173                 0.01         0.00          2.61301
            Ni 105 -- Ni 109                 0.05        -0.00          2.61313
            Ni 47  -- Ni 163                 0.05        -0.00          2.61356
             Al 34 -- Ni 122                 0.16        -0.00          2.61365
            Ni 26  -- Ni 43                  0.07         0.00          2.61385
            Ni 143 -- Ni 167                 0.01         0.00          2.61386
             Al 9  -- Ni 43                  0.19        -0.00          2.61397
            Ni 159 -- Ni 160                 0.10         0.00          2.61397
            Ni 173 -- Ni 192                 0.00         0.00          2.61413
            Ni 65  -- Ni 66                  0.02         0.00          2.61413
             Al 11 -- Ni 31                  0.19        -0.00          2.61439
             Al 58 -- Ni 122                 0.18        -0.00          2.61447
            Ni 104 -- Ni 109                 0.01        -0.00          2.61457
            Ni 169 -- Ni 172                 0.01        -0.00          2.61478
             Al 40 -- Ni 170                 0.18        -0.00          2.61533
            Ni 65  -- Ni 148                 0.04        -0.00          2.61540
             Al 40 -- Ni 143                 0.18         0.00          2.61571
            Ni 148 -- Ni 150                 0.07         0.00          2.61642
            Ni 110 -- Ni 118                 0.04        -0.00          2.61646
             Al 50 -- Ni 117                 0.15        -0.00          2.61664
            Ni 107 -- Ni 114                 0.06         0.00          2.61689
            Ni 156 -- Ni 157                 0.13        -0.00          2.61715
             Al 58 -- Ni 117                 0.15        -0.00          2.61800
            Ni 180 -- Ni 182                 0.00         0.00          2.61849
             Al 46 -- Ni 153                 0.12         0.00          2.61957
            Ni 156 -- Ni 167                 0.11        -0.00          2.61982
             Al 59 -- Ni 7                   0.16         0.00          2.61997
            Ni 105 -- Ni 132                 0.04        -0.00          2.62007
            Ni 25  -- Ni 126                -0.01         0.00          2.62021
            Ni 168 -- Ni 177                 0.04        -0.00          2.62134
            Ni 155 -- Ni 157                 0.07         0.00          2.62139
            Ni 177 -- Ni 179                 0.04        -0.00          2.62156
            Ni 100 -- Ni 107                 0.02        -0.00          2.62207
             Al 58 -- Ni 119                 0.17        -0.00          2.62246
             Al 36 -- Ni 184                 0.18         0.00          2.62313
             Al 35 -- Ni 122                 0.17         0.00          2.62317
             Al 63 -- Ni 100                 0.18        -0.00          2.62332
            Ni 114 -- Ni 135                 0.06         0.00          2.62370
             Al 36 -- Ni 188                 0.18         0.00          2.62395
             Al 43 -- Ni 155                 0.18        -0.00          2.62429
            Ni 102 -- Ni 114                -0.01         0.00          2.62485
             Al 45 -- Ni 108                 0.14         0.00          2.62548
             Al 42 -- Ni 152                 0.16        -0.00          2.62689
             Al 46 -- Ni 147                 0.13        -0.00          2.62770
            Ni 100 -- Ni 180                 0.09        -0.00          2.62849
            Ni 115 -- Ni 117                 0.09         0.00          2.62864
             Al 36 -- Ni 122                 0.17         0.00          2.62893
            Ni 106 -- Ni 133                 0.01         0.00          2.62909
             Al 49 -- Ni 139                 0.16         0.00          2.62929
            Ni 140 -- Ni 141                 0.07        -0.00          2.62940
             Al 61 -- Ni 104                 0.16         0.00          2.63019
             Al 56 -- Ni 130                 0.16         0.00          2.63215
            Ni 100 -- Ni 128                 0.09        -0.00          2.63239
            Ni 99  -- Ni 169                 0.00        -0.00          2.63276
            Ni 136 -- Ni 141                 0.01        -0.00          2.63480
             Al 23 -- Ni 166                 0.14         0.00          2.63530
             Al 45 -- Ni 109                 0.14         0.00          2.63577
            Ni 114 -- Ni 133                 0.02         0.00          2.63579
             Al 42 -- Ni 155                 0.15         0.00          2.63664
            Ni 150 -- Ni 153                -0.03         0.00          2.63839
            Ni 124 -- Ni 125                 0.03        -0.00          2.64077
             Al 48 -- Al 49                  0.27         0.00          2.64130
             Al 52 -- Ni 31                  0.16         0.00          2.64132
             Al 37 -- Ni 190                 0.15        -0.00          2.64201
            Ni 178 -- Ni 188                 0.02         0.00          2.64212
            Ni 106 -- Ni 138                -0.00         0.00          2.64245
            Ni 138 -- Ni 160                 0.05         0.00          2.64267
            Ni 162 -- Ni 164                 0.01         0.00          2.64562
            Ni 127 -- Ni 135                -0.03         0.00          2.64574
            Ni 130 -- Ni 153                -0.00         0.00          2.64721
             Al 35 -- Ni 189                 0.15         0.00          2.64794
            Ni 156 -- Ni 162                 0.12         0.00          2.64943
             Al 48 -- Al 50                  0.25        -0.00          2.65004
            Ni 126 -- Ni 127                 0.01         0.00          2.65226
            Ni 154 -- Ni 155                 0.05         0.00          2.65246
             Al 56 -- Ni 124                 0.15         0.00          2.65326
            Ni 149 -- Ni 150                -0.05         0.00          2.65337
             Al 38 -- Ni 109                 0.13         0.00          2.65373
             Al 23 -- Ni 159                 0.13         0.00          2.65426
             Al 35 -- Ni 190                 0.13        -0.00          2.65678
             Al 50 -- Ni 119                 0.14        -0.00          2.65692
            Ni 100 -- Ni 103                 0.10        -0.00          2.65740
             Al 43 -- Ni 160                 0.16        -0.00          2.65756
             Al 33 -- Ni 122                 0.15         0.00          2.65941
             Al 50 -- Al 58                  0.23        -0.00          2.66184
             Al 37 -- Ni 122                 0.15         0.00          2.66218
             Al 13 -- Ni 139                 0.14         0.00          2.66247
             Al 52 -- Ni 37                  0.15        -0.00          2.66320
             Al 23 -- Al 49                  0.24         0.00          2.66672
             Al 42 -- Ni 150                 0.24         0.00          2.67009
             Al 38 -- Al 45                  0.27         0.00          2.67452
            Ni 100 -- Ni 101                 0.07        -0.00          2.67575
             Al 42 -- Ni 160                 0.13        -0.00          2.67726
            Ni 129 -- Ni 130                 0.08        -0.00          2.67831
            Ni 168 -- Ni 169                 0.02        -0.00          2.68113
             Al 46 -- Al 56                  0.23        -0.00          2.69045
            Ni 130 -- Ni 149                 0.01         0.00          2.69543
            Ni 161 -- Ni 170                 0.03         0.00          2.70572
             Al 42 -- Al 43                  0.21         0.00          2.71940
             Al 36 -- Al 37                  0.22         0.00          2.72289
             Al 46 -- Al 47                  0.20         0.00          2.72825
             Al 33 -- Al 35                  0.21         0.00          2.73587
             Al 34 -- Al 35                  0.19        -0.00          2.73795
             Al 33 -- Al 58                  0.20        -0.00          2.73833
            Ni 164 -- Ni 170                 0.03         0.00          2.74181
             Al 5  -- Al 59                  0.20         0.00          2.74687
             Al 34 -- Al 37                  0.19        -0.00          2.74796
             Al 55 -- Al 56                  0.19         0.00          2.75910
             Al 21 -- Al 52                  0.20         0.00          2.76311
             Al 57 -- Al 63                  0.17        -0.00          2.76673
             Al 15 -- Al 49                  0.20         0.00          2.77129
             Al 53 -- Al 54                  0.18        -0.00          2.77680
             Al 38 -- Al 63                  0.16        -0.00          2.77813
             Al 44 -- Al 62                  0.24         0.00          2.78396
             Al 13 -- Al 52                  0.19         0.00          2.78472
             Al 40 -- Al 51                  0.19        -0.00          2.78726
             Al 43 -- Al 54                  0.17         0.00          2.78740
             Al 55 -- Al 63                  0.16        -0.00          2.79016
             Al 38 -- Al 61                  0.16        -0.00          2.79153
             Al 13 -- Al 59                  0.18         0.00          2.79338
             Al 61 -- Al 63                  0.16        -0.00          2.79480
             Al 41 -- Al 43                  0.15         0.00          2.80323
             Al 41 -- Al 53                  0.17        -0.00          2.80438
             Al 44 -- Al 46                  0.14         0.00          2.81472
             Al 56 -- Al 57                  0.17        -0.00          2.82237
             Al 47 -- Al 62                  0.13        -0.00          2.83160
             Al 41 -- Al 54                  0.13        -0.00          2.84993
             Al 55 -- Al 57                  0.09        -0.00          2.94526
================================================================================
 

Writing analysis data to castep.castep_bin

Writing model to castep.check
 
 A BibTeX formatted list of references used in this run has been written to 
 castep.bib
 
Initialisation time =     13.72 s
Calculation time    =  17342.55 s
Finalisation time   =     12.30 s
Total time          =  17368.57 s
Peak Memory Use     = 2378392 kB
  
Overall parallel efficiency rating: Good (71%)                                  
  
Data was distributed by:-
G-vector (48-way); efficiency rating: Good (72%)                                
