 +-------------------------------------------------+
 |                                                 |
 |      CCC   AA    SSS  TTTTT  EEEEE  PPPP        |
 |     C     A  A  S       T    E      P   P       |
 |     C     AAAA   SS     T    EEE    PPPP        |
 |     C     A  A     S    T    E      P           |
 |      CCC  A  A  SSS     T    EEEEE  P           |
 |                                                 |
 +-------------------------------------------------+
 |                                                 |
 | Welcome to Academic Release CASTEP version 20.11|          
 | Ab Initio Total Energy Program                  |
 |                                                 |
 | Authors:                                        |
 | M. Segall, M. Probert, C. Pickard, P. Hasnip,   |
 | S. Clark, K. Refson, J. R. Yates, M. Payne      |
 |                                                 |
 | Contributors:                                   |
 | P. Lindan, P. Haynes, J. White, V. Milman,      |
 | N. Govind, M. Gibson, P. Tulip, V. Cocula,      |
 | B. Montanari, D. Quigley, M. Glover,            |
 | L. Bernasconi, A. Perlov, M. Plummer,           |
 | E. McNellis, J. Meyer, J. Gale, D. Jochym       |
 | J. Aarons, B. Walker, R. Gillen, D. Jones       |
 | T. Green, I. J. Bush, C. J. Armstrong,          |
 | E. J. Higgins, E. L. Brown, M. S. McFly,        |
 | J. Wilkins, B-C. Shih, P. J. P. Byrne,          |
 | R. J. Maurer, J. C. Womack, J. Dziedzic,        |
 | J. R. Kermode, A. Bartok-Partay                 |
 |                                                 |
 | Copyright (c) 2000 - 2020                       |
 |                                                 |
 |     Distributed under license from Cambridge    |
 |     Enterprise for academic use only.           |
 |                                                 |
 | Please cite                                     |
 |                                                 |
 |     "First principles methods using CASTEP"     |
 |                                                 |
 |         Zeitschrift fuer Kristallographie       |
 |           220(5-6) pp. 567-570 (2005)           |
 |                                                 |
 | S. J. Clark, M. D. Segall, C. J. Pickard,       |
 | P. J. Hasnip, M. J. Probert, K. Refson,         |
 | M. C. Payne                                     |
 |                                                 |
 |       in all publications arising from          |
 |              your use of CASTEP                 |
 |                                                 |
 +-------------------------------------------------+
 |                                                 |
 |              http://www.castep.org              |
 |                                                 |
 +-------------------------------------------------+
 
 
 
 Compiled for linux_x86_64_ifort on Wed, 25 Aug 2021 18:50:38 +0100
 from code version e772bf432+  HEAD  Sat Apr 3 17:41:32 2021 +0100
 Compiler: Intel Fortran 19.0.5.281; Optimisation: fast
 MATHLIBS: Intel MKL(2019.0.5) (LAPACK version 3.7.0)
 FFT Lib : mkl
 Fundamental constants values: CODATA 2014
 
 Run started: Wed, 08 Mar 2023 14:55:13 +0000
 
 Atomic calculation performed for Al: 1s2 2s2 2p6 3s2 3p1
 
 Converged in 52 iterations to an ae energy of -6606.982 eV
 
   ============================================================                
   | Pseudopotential Report - Date of generation  8-03-2023   |                
   ------------------------------------------------------------                
   | Element: Al Ionic charge:  3.00 Level of theory: RPBE    |                
   | Atomic Solver: Koelling-Harmon                           |                
   |                                                          |                
   |               Reference Electronic Structure             |                
   |         Orbital         Occupation         Energy        |                
   |            3s              2.000           -0.284        |                
   |            3p              1.000           -0.100        |                
   |                                                          |                
   |                 Pseudopotential Definition               |                
   |        Beta     l      e      Rc     scheme   norm       |                
   |          1      0   -0.284   2.192     qc      0         |                
   |          2      0    0.250   2.192     qc      0         |                
   |          3      1   -0.100   2.192     qc      0         |                
   |          4      1    0.250   2.192     qc      0         |                
   |          5      2    0.000   2.000     qc      0         |                
   |          6      2    0.250   2.000     qc      0         |                
   |         loc     3    0.000   2.192     pn      0         |                
   |                                                          |                
   | Augmentation charge Rinner = 1.398                       |                
   | Partial core correction Rc = 1.398                       |                
   ------------------------------------------------------------                
   | "3|2.2|2.2|1.4|4|5|5|30:31:32U2U2"                       |                
   ------------------------------------------------------------                
   |      Author: Chris J. Pickard, Cambridge University      |                
   ============================================================                
 
 Atomic calculation performed for Ni: 1s2 2s2 2p6 3s2 3p6 3d8 4s2
 
 Converged in 109 iterations to an ae energy of -41381.414 eV
 
   ============================================================                
   | Pseudopotential Report - Date of generation  8-03-2023   |                
   ------------------------------------------------------------                
   | Element: Ni Ionic charge: 10.00 Level of theory: RPBE    |                
   | Atomic Solver: Koelling-Harmon                           |                
   |                                                          |                
   |               Reference Electronic Structure             |                
   |         Orbital         Occupation         Energy        |                
   |            3d              8.000           -0.324        |                
   |            4s              2.000           -0.204        |                
   |                                                          |                
   |                 Pseudopotential Definition               |                
   |        Beta     l      e      Rc     scheme   norm       |                
   |          1      0   -0.204   2.401     qc      0         |                
   |          2      0    0.250   2.401     qc      0         |                
   |          3      1    0.000   2.401     qc      0         |                
   |          4      1    0.250   2.401     qc      0         |                
   |          5      2   -0.324   1.999     qc      0         |                
   |          6      2    0.250   1.999     qc      0         |                
   |         loc     3    0.000   2.401     pn      0         |                
   |                                                          |                
   | Augmentation charge Rinner = 1.001                       |                
   | Partial core correction Rc = 1.001                       |                
   ------------------------------------------------------------                
   | "3|2.4|2.4|1.0|8|9|10|40:41:32U2U2(qc=5.5)"              |                
   ------------------------------------------------------------                
   |      Author: Chris J. Pickard, Cambridge University      |                
   ============================================================                
 
 Pseudo atomic calculation performed for Al 3s2 3p1
 
 Converged in 13 iterations to a total energy of -107.6592 eV
 
 Pseudo atomic calculation performed for Ni 3d8 4s2
 
 Converged in 41 iterations to a total energy of -1369.7891 eV
 Calculation parallelised over 48 processes.
 Data is distributed by G-vector(48-way)

 ************************************ Title ************************************
 

 ***************************** General Parameters ******************************
  
 output verbosity                               : normal  (1)
 write checkpoint data to                       : castep.check
 type of calculation                            : geometry optimization
 stress calculation                             : off
 density difference calculation                 : off
 electron localisation func (ELF) calculation   : off
 Hirshfeld analysis                             : off
 molecular orbital projected DOS                : off
 deltaSCF calculation                           : off
 unlimited duration calculation
 timing information                             : on
 memory usage estimate                          : on
 write extra output files                       : on
 write final potential to formatted file        : off
 write final density to formatted file          : off
 write BibTeX reference list                    : on
 write OTFG pseudopotential files               : on
 write electrostatic potential file             : on
 write bands file                               : on
 checkpoint writing                             : both castep_bin and check files
  
 output         length unit                     : A
 output           mass unit                     : amu
 output           time unit                     : ps
 output         charge unit                     : e
 output           spin unit                     : hbar/2
 output         energy unit                     : eV
 output          force unit                     : eV/A
 output       velocity unit                     : A/ps
 output       pressure unit                     : GPa
 output     inv_length unit                     : 1/A
 output      frequency unit                     : cm-1
 output force constant unit                     : eV/A**2
 output         volume unit                     : A**3
 output   IR intensity unit                     : (D/A)**2/amu
 output         dipole unit                     : D
 output         efield unit                     : eV/A/e
 output        entropy unit                     : J/mol/K
 output    efield chi2 unit                     : pm/V
  
 wavefunctions paging                           : none
 random number generator seed                   : randomised (145513391)
 data distribution                              : optimal for this architecture
 optimization strategy                          : maximize speed(+++)

 *********************** Exchange-Correlation Parameters ***********************
  
 using functional                               : revised Perdew Burke Ernzerhof
 relativistic treatment                         : Koelling-Harmon
 DFT+D: Semi-empirical dispersion correction    : off

 ************************* Pseudopotential Parameters **************************
  
 pseudopotential representation                 : reciprocal space
 <beta|phi> representation                      : reciprocal space
 spin-orbit coupling                            : off

 **************************** Basis Set Parameters *****************************
  
 plane wave basis set cut-off                   :   900.0000   eV
 size of standard grid                          :     1.7500
 size of   fine   gmax                          :    26.8966   1/A
 finite basis set correction                    : none

 **************************** Electronic Parameters ****************************
  
 number of  electrons                           :  2109.    
 net charge of system                           :  0.000    
 net spin   of system                           :  1.000    
 number of  up  spins                           :  1055.    
 number of down spins                           :  1054.    
 treating system as spin-polarized
 number of bands                                :       1167

 ********************* Electronic Minimization Parameters **********************
  
 Method: Treating system as metallic with density mixing treatment of electrons,
         and number of  SD  steps               :          1
         and number of  CG  steps               :          4
  
 total energy / atom convergence tol.           : 0.1000E-05   eV
 eigen-energy convergence tolerance             : 0.2185E-06   eV
 max force / atom convergence tol.              : ignored
 convergence tolerance window                   :          3   cycles
 max. number of SCF cycles                      :        200
 number of fixed-spin iterations                :         10
 smearing scheme                                : Gaussian
 smearing width                                 : 0.2000       eV
 Fermi energy convergence tolerance             : 0.2721E-13   eV
 periodic dipole correction                     : NONE
 periodically dump wavefunctions to             : castep.wvfn
 dump wavefunctions every                       :          1   SCF cycles

 ************************** Density Mixing Parameters **************************
  
 density-mixing scheme                          : Pulay
 max. length of mixing history                  :         20
 charge density mixing amplitude                : 0.8000    
   spin density mixing amplitude                :  2.000    
 cut-off energy for mixing                      :  900.0       eV

 *********************** Population Analysis Parameters ************************
  
 Population analysis with cutoff                :  3.000       A
 Population analysis output                     : summary and pdos components

 ********************** Geometry Optimization Parameters ***********************
  
 optimization method                            : LBFGS
 max. no. of LBFGS updates                      : unbounded
 variable cell method                           : fixed basis quality
 max. number of steps                           :         30
 estimated bulk modulus                         :  500.0       GPa
 estimated <frequency>                          :  1668.       cm-1
 geom line minimiser                            : on
 with line minimiser tolerance                  :     0.4000
  with spin fully able to relax for all steps
 total energy convergence tolerance             : 0.2000E-04   eV/atom
        max ionic |force| tolerance             : 0.5000E-01   eV/A
 max ionic |displacement| tolerance             : 0.1000E-02   A
   max |stress component| tolerance             : 0.1000       GPa
 convergence tolerance window                   :          2   steps
 backup results every                           :          5   steps
 write geom trajectory file                     : on

 *******************************************************************************
  
 
                           -------------------------------
                                      Unit Cell
                           -------------------------------
        Real Lattice(A)                      Reciprocal Lattice(1/A)
    14.4648280     0.0000000     0.0000000        0.434376773   0.000000000   0.000000000
     0.0000000    14.4648280     0.0000000        0.000000000   0.434376773   0.000000000
     0.0000000     0.0000000    14.4648280        0.000000000   0.000000000   0.434376773
 
                       Lattice parameters(A)       Cell Angles
                    a =     14.464828          alpha =   90.000000
                    b =     14.464828          beta  =   90.000000
                    c =     14.464828          gamma =   90.000000
 
                       Current cell volume =          3026.494030       A**3
                                   density =             4.285146   AMU/A**3
                                           =             7.115653     g/cm^3
 
                           -------------------------------
                                     Cell Contents
                           -------------------------------
                         Total number of ions in cell =  255
                      Total number of species in cell =    2
                        Max number of any one species =  192
 
            xxxxxxxxxxxxxxxxxxxxxxxxxxxxxxxxxxxxxxxxxxxxxxxxxxxxxxxxxxxx
            x  Element    Atom        Fractional coordinates of atoms  x
            x            Number           u          v          w      x
            x----------------------------------------------------------x
            x  Al           1         0.569807   0.308622   0.065059   x 
            x  Al           2         0.817951   0.309632   0.062664   x 
            x  Al           3         0.568881   0.558713   0.066468   x 
            x  Al           4         0.817350   0.558387   0.063172   x 
            x  Al           5         0.574858   0.809258   0.059671   x 
            x  Al           6         0.818744   0.807916   0.061957   x 
            x  Al           7         0.571825   0.059181   0.062782   x 
            x  Al           8         0.819553   0.059517   0.061548   x 
            x  Al           9         0.569823   0.306122   0.313163   x 
            x  Al          10         0.819185   0.308383   0.312560   x 
            x  Al          11         0.573384   0.555040   0.312598   x 
            x  Al          12         0.818113   0.558917   0.312634   x 
            x  Al          13         0.577649   0.814984   0.312704   x 
            x  Al          14         0.819651   0.808958   0.312393   x 
            x  Al          15         0.574715   0.057059   0.308743   x 
            x  Al          16         0.820454   0.058863   0.312169   x 
            x  Al          17         0.575831   0.302865   0.560424   x 
            x  Al          18         0.818652   0.309210   0.562828   x 
            x  Al          19         0.573229   0.564155   0.559741   x 
            x  Al          20         0.817728   0.559166   0.562531   x 
            x  Al          21         0.575179   0.809576   0.566073   x 
            x  Al          22         0.819506   0.808399   0.563822   x 
            x  Al          23         0.577658   0.057871   0.569183   x 
            x  Al          24         0.820522   0.058410   0.564020   x 
            x  Al          25         0.571015   0.309951   0.811998   x 
            x  Al          26         0.817584   0.310510   0.813260   x 
            x  Al          27         0.568361   0.558297   0.812771   x 
            x  Al          28         0.817093   0.558171   0.813053   x 
            x  Al          29         0.570314   0.808081   0.813852   x 
            x  Al          30         0.819175   0.807413   0.813634   x 
            x  Al          31         0.572100   0.058932   0.812499   x 
            x  Al          32         0.819934   0.059407   0.814085   x 
            x  Al          33         0.328862   0.183238   0.934599   x 
            x  Al          34         0.056071   0.058323   0.808385   x 
            x  Al          35         0.192522   0.190652   0.805033   x 
            x  Al          36         0.321889   0.935684   0.939154   x 
            x  Al          37         0.192765   0.929975   0.805327   x 
            x  Al          38         0.318552   0.689581   0.944125   x 
            x  Al          39         0.074781   0.687234   0.929655   x 
            x  Al          40         0.197361   0.186655   0.572021   x 
            x  Al          41         0.066288   0.807060   0.566004   x 
            x  Al          42         0.325652   0.685598   0.688412   x 
            x  Al          43         0.193002   0.670154   0.563450   x 
            x  Al          44         0.325052   0.427628   0.687905   x 
            x  Al          45         0.327585   0.555988   0.819303   x 
            x  Al          46         0.198340   0.432132   0.547127   x 
            x  Al          47         0.065949   0.435124   0.684574   x 
            x  Al          48         0.317906   0.059858   0.311660   x 
            x  Al          49         0.441055   0.056783   0.444993   x 
            x  Al          50         0.185933   0.054361   0.184731   x 
            x  Al          51         0.066226   0.182485   0.441005   x 
            x  Al          52         0.433975   0.815754   0.439866   x 
            x  Al          53         0.069903   0.945639   0.441857   x 
            x  Al          54         0.200700   0.809930   0.431840   x 
            x  Al          55         0.432650   0.678665   0.311038   x 
            x  Al          56         0.437485   0.432543   0.545601   x 
            x  Al          57         0.193425   0.425568   0.319511   x 
            x  Al          58         0.187333   0.186961   0.058279   x 
            x  Al          59         0.434532   0.816990   0.185200   x 
            x  Al          60         0.191770   0.812312   0.187246   x 
            x  Al          61         0.192086   0.426487   0.056749   x 
            x  Al          62         0.191247   0.427430   0.822123   x 
            x  Al          63         0.188982   0.565211   0.186226   x 
            x  Ni           1         0.566326   0.431766   0.190718   x 
            x  Ni           2         0.694041   0.308251   0.188473   x 
            x  Ni           3         0.692558   0.433803   0.064397   x 
            x  Ni           4         0.818078   0.433915   0.187951   x 
            x  Ni           5         0.942832   0.309436   0.187429   x 
            x  Ni           6         0.942426   0.434345   0.062634   x 
            x  Ni           7         0.564261   0.687712   0.191739   x 
            x  Ni           8         0.692799   0.559065   0.188561   x 
            x  Ni           9         0.692856   0.682742   0.063981   x 
            x  Ni          10         0.818698   0.683407   0.187578   x 
            x  Ni          11         0.942537   0.558785   0.187665   x 
            x  Ni          12         0.942700   0.683078   0.062494   x 
            x  Ni          13         0.569249   0.932778   0.185211   x 
            x  Ni          14         0.695665   0.809096   0.186539   x 
            x  Ni          15         0.695876   0.934397   0.061256   x 
            x  Ni          16         0.820129   0.933822   0.186390   x 
            x  Ni          17         0.942996   0.808288   0.187066   x 
            x  Ni          18         0.943364   0.933396   0.061976   x 
            x  Ni          19         0.568782   0.183165   0.187725   x 
            x  Ni          20         0.696097   0.058622   0.185897   x 
            x  Ni          21         0.694106   0.184486   0.062391   x 
            x  Ni          22         0.819323   0.184128   0.186964   x 
            x  Ni          23         0.943433   0.058987   0.186860   x 
            x  Ni          24         0.943180   0.184762   0.062234   x 
            x  Ni          25         0.568748   0.432224   0.437722   x 
            x  Ni          26         0.694945   0.306625   0.436529   x 
            x  Ni          27         0.694403   0.432189   0.313257   x 
            x  Ni          28         0.818326   0.433904   0.437621   x 
            x  Ni          29         0.942747   0.309244   0.438060   x 
            x  Ni          30         0.942453   0.434216   0.312817   x 
            x  Ni          31         0.564607   0.689425   0.433061   x 
            x  Ni          32         0.693888   0.560210   0.436673   x 
            x  Ni          33         0.694229   0.684643   0.312469   x 
            x  Ni          34         0.819026   0.684279   0.437540   x 
            x  Ni          35         0.942400   0.559063   0.437932   x 
            x  Ni          36         0.942961   0.683701   0.312632   x 
            x  Ni          37         0.568742   0.935371   0.440257   x 
            x  Ni          38         0.695590   0.810250   0.438393   x 
            x  Ni          39         0.697786   0.935199   0.312221   x 
            x  Ni          40         0.820657   0.933755   0.438368   x 
            x  Ni          41         0.943351   0.808509   0.438125   x 
            x  Ni          42         0.943398   0.933533   0.312405   x 
            x  Ni          43         0.569798   0.177373   0.437541   x 
            x  Ni          44         0.696207   0.057442   0.438266   x 
            x  Ni          45         0.695586   0.182484   0.312252   x 
            x  Ni          46         0.820048   0.183135   0.437590   x 
            x  Ni          47         0.943929   0.058665   0.438191   x 
            x  Ni          48         0.943412   0.184007   0.312458   x 
            x  Ni          49         0.565872   0.434256   0.680438   x 
            x  Ni          50         0.694282   0.309716   0.687658   x 
            x  Ni          51         0.693787   0.433945   0.561234   x 
            x  Ni          52         0.817732   0.434591   0.687738   x 
            x  Ni          53         0.942823   0.309983   0.688234   x 
            x  Ni          54         0.942473   0.434483   0.563024   x 
            x  Ni          55         0.567159   0.683821   0.688675   x 
            x  Ni          56         0.692517   0.558858   0.687210   x 
            x  Ni          57         0.694391   0.684932   0.562037   x 
            x  Ni          58         0.818286   0.682873   0.688405   x 
            x  Ni          59         0.942523   0.558832   0.688035   x 
            x  Ni          60         0.942701   0.683503   0.563286   x 
            x  Ni          61         0.570598   0.933057   0.690554   x 
            x  Ni          62         0.695399   0.807913   0.690082   x 
            x  Ni          63         0.697380   0.933449   0.564742   x 
            x  Ni          64         0.820290   0.933065   0.689600   x 
            x  Ni          65         0.943322   0.807877   0.688688   x 
            x  Ni          66         0.943728   0.933317   0.563827   x 
            x  Ni          67         0.570994   0.183588   0.688807   x 
            x  Ni          68         0.697676   0.058636   0.690690   x 
            x  Ni          69         0.697809   0.182480   0.563332   x 
            x  Ni          70         0.819701   0.184842   0.689224   x 
            x  Ni          71         0.943620   0.058959   0.688884   x 
            x  Ni          72         0.942935   0.184264   0.563481   x 
            x  Ni          73         0.567324   0.434228   0.940255   x 
            x  Ni          74         0.692479   0.309766   0.938379   x 
            x  Ni          75         0.690865   0.434732   0.811886   x 
            x  Ni          76         0.816931   0.434358   0.937917   x 
            x  Ni          77         0.942803   0.310068   0.937694   x 
            x  Ni          78         0.942534   0.434549   0.812963   x 
            x  Ni          79         0.567582   0.683420   0.938635   x 
            x  Ni          80         0.691803   0.558278   0.938812   x 
            x  Ni          81         0.692945   0.682275   0.813313   x 
            x  Ni          82         0.817797   0.682300   0.938119   x 
            x  Ni          83         0.942468   0.558540   0.937902   x 
            x  Ni          84         0.942799   0.682775   0.813216   x 
            x  Ni          85         0.569116   0.934442   0.936813   x 
            x  Ni          86         0.695035   0.807910   0.937023   x 
            x  Ni          87         0.695600   0.933329   0.813988   x 
            x  Ni          88         0.819619   0.933671   0.937529   x 
            x  Ni          89         0.942983   0.807795   0.937794   x 
            x  Ni          90         0.943822   0.933276   0.813441   x 
            x  Ni          91         0.568091   0.183801   0.937788   x 
            x  Ni          92         0.694579   0.059582   0.937410   x 
            x  Ni          93         0.694562   0.185060   0.813737   x 
            x  Ni          94         0.818791   0.185204   0.937794   x 
            x  Ni          95         0.943731   0.059253   0.937630   x 
            x  Ni          96         0.943449   0.185079   0.813288   x 
            x  Ni          97         0.072829   0.431161   0.186795   x 
            x  Ni          98         0.191935   0.306445   0.186735   x 
            x  Ni          99         0.064917   0.306351   0.060173   x 
            x  Ni         100         0.312163   0.432397   0.187991   x 
            x  Ni         101         0.442260   0.306972   0.190645   x 
            x  Ni         102         0.317038   0.557594   0.063230   x 
            x  Ni         103         0.320140   0.305262   0.062716   x 
            x  Ni         104         0.066030   0.560488   0.057941   x 
            x  Ni         105         0.065169   0.687893   0.186848   x 
            x  Ni         106         0.315101   0.685121   0.184373   x 
            x  Ni         107         0.441818   0.557475   0.189699   x 
            x  Ni         108         0.444424   0.685947   0.066409   x 
            x  Ni         109         0.190257   0.686468   0.061682   x 
            x  Ni         110         0.065588   0.934550   0.185093   x 
            x  Ni         111         0.316805   0.812873   0.062332   x 
            x  Ni         112         0.190165   0.936728   0.057401   x 
            x  Ni         113         0.314070   0.939045   0.184711   x 
            x  Ni         114         0.318439   0.812068   0.309959   x 
            x  Ni         115         0.444956   0.936072   0.061698   x 
            x  Ni         116         0.065355   0.181074   0.184365   x 
            x  Ni         117         0.315999   0.062240   0.059553   x 
            x  Ni         118         0.066715   0.058915   0.055875   x 
            x  Ni         119         0.314812   0.179872   0.186090   x 
            x  Ni         120         0.443526   0.057239   0.187284   x 
            x  Ni         121         0.445038   0.183122   0.064088   x 
            x  Ni         122         0.193170   0.061874   0.928562   x 
            x  Ni         123         0.065619   0.430864   0.437518   x 
            x  Ni         124         0.191733   0.301352   0.437857   x 
            x  Ni         125         0.063956   0.304163   0.312175   x 
            x  Ni         126         0.446559   0.302658   0.435770   x 
            x  Ni         127         0.438318   0.432384   0.317734   x 
            x  Ni         128         0.319064   0.304684   0.313795   x 
            x  Ni         129         0.070257   0.685836   0.440089   x 
            x  Ni         130         0.191552   0.557526   0.433084   x 
            x  Ni         131         0.191399   0.685426   0.310825   x 
            x  Ni         132         0.066315   0.558595   0.311654   x 
            x  Ni         133         0.316028   0.682607   0.438127   x 
            x  Ni         134         0.444263   0.560813   0.434024   x 
            x  Ni         135         0.313727   0.554717   0.311409   x 
            x  Ni         136         0.065820   0.059667   0.312760   x 
            x  Ni         137         0.069375   0.815102   0.316211   x 
            x  Ni         138         0.315088   0.938455   0.440023   x 
            x  Ni         139         0.444489   0.936655   0.313815   x 
            x  Ni         140         0.191164   0.937997   0.312956   x 
            x  Ni         141         0.193967   0.063596   0.441017   x 
            x  Ni         142         0.190257   0.181730   0.310324   x 
            x  Ni         143         0.318020   0.180585   0.439169   x 
            x  Ni         144         0.444086   0.178015   0.313236   x 
            x  Ni         145         0.064865   0.308904   0.563085   x 
            x  Ni         146         0.448799   0.308993   0.682984   x 
            x  Ni         147         0.321314   0.309070   0.558770   x 
            x  Ni         148         0.066431   0.679162   0.688399   x 
            x  Ni         149         0.064891   0.556357   0.563051   x 
            x  Ni         150         0.197806   0.549121   0.690379   x 
            x  Ni         151         0.444901   0.557166   0.684527   x 
            x  Ni         152         0.444738   0.685578   0.560058   x 
            x  Ni         153         0.320811   0.555571   0.561509   x 
            x  Ni         154         0.064684   0.932195   0.687217   x 
            x  Ni         155         0.193012   0.803378   0.684728   x 
            x  Ni         156         0.191235   0.933597   0.565350   x 
            x  Ni         157         0.318285   0.932130   0.688771   x 
            x  Ni         158         0.445924   0.809728   0.686520   x 
            x  Ni         159         0.444699   0.933884   0.565368   x 
            x  Ni         160         0.315934   0.807019   0.563678   x 
            x  Ni         161         0.064882   0.186224   0.686487   x 
            x  Ni         162         0.191131   0.059456   0.691489   x 
            x  Ni         163         0.067446   0.061746   0.566501   x 
            x  Ni         164         0.320510   0.186986   0.689229   x 
            x  Ni         165         0.446315   0.058110   0.687215   x 
            x  Ni         166         0.445640   0.181835   0.563848   x 
            x  Ni         167         0.318108   0.059509   0.567997   x 
            x  Ni         168         0.066252   0.431621   0.935905   x 
            x  Ni         169         0.194610   0.303184   0.935928   x 
            x  Ni         170         0.192949   0.316989   0.685276   x 
            x  Ni         171         0.063583   0.309412   0.808278   x 
            x  Ni         172         0.320227   0.431847   0.938752   x 
            x  Ni         173         0.447505   0.308734   0.939130   x 
            x  Ni         174         0.447229   0.432730   0.812710   x 
            x  Ni         175         0.323165   0.309213   0.812856   x 
            x  Ni         176         0.067164   0.810919   0.058020   x 
            x  Ni         177         0.194194   0.558624   0.938136   x 
            x  Ni         178         0.199362   0.680453   0.810265   x 
            x  Ni         179         0.066280   0.556959   0.811618   x 
            x  Ni         180         0.442115   0.432246   0.066362   x 
            x  Ni         181         0.443587   0.683657   0.814754   x 
            x  Ni         182         0.444773   0.559654   0.943066   x 
            x  Ni         183         0.068169   0.932809   0.930342   x 
            x  Ni         184         0.194938   0.811414   0.934572   x 
            x  Ni         185         0.066525   0.807285   0.808272   x 
            x  Ni         186         0.445011   0.809972   0.940110   x 
            x  Ni         187         0.444728   0.934163   0.812638   x 
            x  Ni         188         0.321361   0.809290   0.813126   x 
            x  Ni         189         0.066359   0.183885   0.930973   x 
            x  Ni         190         0.320507   0.059009   0.811004   x 
            x  Ni         191         0.446403   0.058572   0.937259   x 
            x  Ni         192         0.446830   0.184331   0.810408   x 
            xxxxxxxxxxxxxxxxxxxxxxxxxxxxxxxxxxxxxxxxxxxxxxxxxxxxxxxxxxxx
 
 
                         No user defined ionic velocities
 
                           -------------------------------
                                   Details of Species
                           -------------------------------
 
                               Mass of species in AMU
                                    Al   26.9815400
                                    Ni   58.6934000
 
                          Electric Quadrupole Moment (Barn)
                                    Al    0.1466000 Isotope 27
                                    Ni    0.1620000 Isotope 61
 
                          Files used for pseudopotentials:
                                    Al 3|2.2|2.2|1.4|4|5|5|30:31:32U2U2
                                    Ni 3|2.4|2.4|1.0|8|9|10|40:41:32U2U2(qc=5.5)
 
                           -------------------------------
                              k-Points For BZ Sampling
                           -------------------------------
                       MP grid size for SCF calculation is  1  1  1
                            with an offset of   0.000  0.000  0.000
                       Number of kpoints used =             1
 
                           -------------------------------
                               Symmetry and Constraints
                           -------------------------------
 
                      Maximum deviation from symmetry =  0.00000         ANG
 
                      Number of symmetry operations   =           1
                      Number of ionic constraints     =           3
                      Point group of crystal =     1: C1, 1, 1
                      Space group of crystal =     1: P1, P 1
 
             Set iprint > 1 for details on symmetry rotations/translations
 
                         Centre of mass is constrained
             Set iprint > 1 for details of linear ionic constraints
 
                         Number of cell constraints= 6
                         Cell constraints are:  0 0 0 0 0 0
 
                         External pressure/stress (GPa)
                          0.00000   0.00000   0.00000
                                    0.00000   0.00000
                                              0.00000
  
+---------------- MEMORY AND SCRATCH DISK ESTIMATES PER PROCESS --------------+
|                                                     Memory          Disk    |
| Baseline code, static data and system overhead      622.0 MB         0.0 MB |
| BLAS internal memory storage                          0.0 MB         0.0 MB |
| Model and support data                              741.5 MB         0.0 MB |
| Electronic energy minimisation requirements         236.0 MB         0.0 MB |
| Force calculation requirements                        7.9 MB         0.0 MB |
|                                               ----------------------------- |
| Approx. total storage required per process         1599.5 MB         0.0 MB |
|                                                                             |
| Requirements will fluctuate during execution and may exceed these estimates |
+-----------------------------------------------------------------------------+
Calculating total energy with cut-off of  900.000 eV.
------------------------------------------------------------------------ <-- SCF
SCF loop      Energy           Fermi           Energy gain       Timer   <-- SCF
                               energy          per atom          (sec)   <-- SCF
------------------------------------------------------------------------ <-- SCF
Initial  -2.19147963E+005  0.00000000E+000                        21.32  <-- SCF
      1  -2.63688135E+005  7.12771437E+000   1.74667343E+002     107.27  <-- SCF
      2  -2.70649959E+005  3.64785755E+000   2.73012689E+001     193.75  <-- SCF
      3  -2.71369056E+005  3.54496258E+000   2.81999186E+000     280.18  <-- SCF
      4  -2.71426032E+005  3.65636051E+000   2.23433961E-001     362.40  <-- SCF
      5  -2.71719387E+005  6.63532973E+000   1.15041229E+000     457.85  <-- SCF
      6  -2.71508467E+005  5.53442244E+000  -8.27140113E-001     569.02  <-- SCF
      7  -2.71404123E+005  4.55893939E+000  -4.09189966E-001     668.59  <-- SCF
      8  -2.71387461E+005  4.40731537E+000  -6.53401008E-002     770.99  <-- SCF
      9  -2.71393832E+005  4.47076425E+000   2.49810635E-002     865.97  <-- SCF
     10  -2.71393613E+005  4.43201235E+000  -8.58610271E-004     961.96  <-- SCF
     11  -2.72186999E+005  6.11327603E+000   3.11131889E+000    1062.10  <-- SCF
     12  -2.72198206E+005  6.08650509E+000   4.39488822E-002    1145.96  <-- SCF
     13  -2.71504176E+005  4.79968429E+000  -2.72168646E+000    1272.52  <-- SCF
     14  -2.71566132E+005  4.79847177E+000   2.42964323E-001    1354.56  <-- SCF
     15  -2.71431420E+005  4.30412959E+000  -5.28280905E-001    1455.80  <-- SCF
     16  -2.71397276E+005  4.23153327E+000  -1.33899964E-001    1553.50  <-- SCF
     17  -2.71391836E+005  4.28103921E+000  -2.13319915E-002    1645.11  <-- SCF
     18  -2.71389267E+005  4.34065905E+000  -1.00753743E-002    1738.56  <-- SCF
     19  -2.71386794E+005  4.36420060E+000  -9.69751415E-003    1832.18  <-- SCF
     20  -2.71385708E+005  4.36258029E+000  -4.25789719E-003    1927.16  <-- SCF
     21  -2.71385402E+005  4.35253915E+000  -1.20000283E-003    2020.07  <-- SCF
     22  -2.71385249E+005  4.34885230E+000  -6.01755262E-004    2115.08  <-- SCF
     23  -2.71385118E+005  4.35476972E+000  -5.12693060E-004    2211.74  <-- SCF
     24  -2.71385025E+005  4.36155364E+000  -3.65561283E-004    2306.26  <-- SCF
     25  -2.71384973E+005  4.36608806E+000  -2.01949430E-004    2401.67  <-- SCF
     26  -2.71384836E+005  4.37124311E+000  -5.39370744E-004    2495.32  <-- SCF
     27  -2.71384782E+005  4.37403984E+000  -2.09234576E-004    2591.29  <-- SCF
     28  -2.71384778E+005  4.37510293E+000  -1.82561061E-005    2685.56  <-- SCF
     29  -2.71384768E+005  4.37714230E+000  -3.70081065E-005    2781.11  <-- SCF
     30  -2.71384767E+005  4.37757769E+000  -2.76921686E-006    2864.82  <-- SCF
     31  -2.71384767E+005  4.37865472E+000  -1.71908746E-006    2951.67  <-- SCF
     32  -2.71384765E+005  4.37936348E+000  -6.62871428E-006    3030.30  <-- SCF
     33  -2.71384765E+005  4.37932440E+000  -6.86477954E-008    3092.49  <-- SCF
     34  -2.71384765E+005  4.37932292E+000   1.33645025E-007    3154.86  <-- SCF
------------------------------------------------------------------------ <-- SCF
 
Integrated Spin Density     =    0.165348     hbar/2                        
Integrated |Spin Density|   =    0.256579     hbar/2                        
 
Final energy, E             =  -271380.2413185     eV
Final free energy (E-TS)    =  -271384.7653645     eV
(energies not corrected for finite basis set)
 
NB est. 0K energy (E-0.5TS)      =  -271382.5033415     eV
 

Writing analysis data to castep.castep_bin

Writing model to castep.check
 
+---------------- MEMORY AND SCRATCH DISK ESTIMATES PER PROCESS --------------+
|                                                     Memory          Disk    |
| Model and support data                              750.6 MB         0.0 MB |
| Electronic energy minimisation requirements         236.0 MB         0.0 MB |
| Geometry minimisation requirements                  309.4 MB         0.0 MB |
|                                               ----------------------------- |
| Approx. total storage required per process         1296.0 MB         0.0 MB |
|                                                                             |
| Requirements will fluctuate during execution and may exceed these estimates |
+-----------------------------------------------------------------------------+
 
 
 ************************************** Forces **************************************
 *                                                                                  *
 *                           Cartesian components (eV/A)                            *
 * -------------------------------------------------------------------------------- *
 *                         x                    y                    z              *
 *                                                                                  *
 * Al              1     -0.11237             -0.00983             -0.03535         *
 * Al              2      0.04595             -0.02410             -0.00230         *
 * Al              3     -0.09942             -0.01791             -0.00803         *
 * Al              4      0.08019             -0.01040              0.00568         *
 * Al              5     -0.07725             -0.00102             -0.13889         *
 * Al              6      0.11466              0.02457              0.00671         *
 * Al              7     -0.15682              0.04199             -0.03318         *
 * Al              8      0.06650              0.01629             -0.02295         *
 * Al              9     -0.06426              0.04638             -0.00748         *
 * Al             10      0.04842              0.01167             -0.02867         *
 * Al             11     -0.03572             -0.12647              0.00314         *
 * Al             12      0.09559              0.00074             -0.01975         *
 * Al             13      0.35412              0.07562             -0.01696         *
 * Al             14      0.03770             -0.04713             -0.03257         *
 * Al             15     -0.02241              0.00780             -0.11350         *
 * Al             16      0.06905              0.03591             -0.01980         *
 * Al             17     -0.08745             -0.05958              0.00753         *
 * Al             18      0.02478              0.02798             -0.00643         *
 * Al             19     -0.05479              0.04732             -0.02324         *
 * Al             20      0.06893             -0.00462             -0.01386         *
 * Al             21     -0.05067              0.00440              0.11978         *
 * Al             22      0.12071              0.00063             -0.00379         *
 * Al             23     -0.00233              0.02509              0.10312         *
 * Al             24      0.02506             -0.00204             -0.02055         *
 * Al             25     -0.11610             -0.06996              0.01655         *
 * Al             26      0.00172             -0.02237              0.01710         *
 * Al             27     -0.12102              0.00164              0.03009         *
 * Al             28      0.07167              0.02282              0.00954         *
 * Al             29     -0.14698              0.06525              0.02403         *
 * Al             30      0.05165              0.00343              0.02169         *
 * Al             31     -0.18192              0.01048              0.02931         *
 * Al             32      0.08748             -0.02354              0.03814         *
 * Al             33      0.12107              0.08467              0.12007         *
 * Al             34      0.36767              0.15123              0.30191         *
 * Al             35     -0.01918              0.00962             -0.06726         *
 * Al             36      0.16088              0.05080              0.21740         *
 * Al             37     -0.04998             -0.29249             -0.04741         *
 * Al             38      0.04537              0.07113              0.20500         *
 * Al             39     -0.55196             -0.28188              0.52918         *
 * Al             40      0.06416             -0.22826             -0.06298         *
 * Al             41     -0.68550             -0.05618              0.59633         *
 * Al             42      0.24950              0.22638             -0.14384         *
 * Al             43     -0.14265             -0.11456             -0.07575         *
 * Al             44      0.18639             -0.19175             -0.30348         *
 * Al             45     -0.07008              0.02137              0.22520         *
 * Al             46      0.03270              0.09719             -0.25406         *
 * Al             47     -0.69846             -0.05995              0.09873         *
 * Al             48     -0.25246             -0.08894             -0.03094         *
 * Al             49      0.01756              0.17715              0.12805         *
 * Al             50     -0.28608              0.06230             -0.04478         *
 * Al             51     -0.38292              0.03468             -0.66868         *
 * Al             52     -0.13005              0.03431              0.20902         *
 * Al             53     -0.51055             -0.07574             -0.65340         *
 * Al             54      0.10986             -0.05601             -0.16807         *
 * Al             55     -0.22324             -0.14015             -0.10696         *
 * Al             56      0.00885             -0.08978             -0.10575         *
 * Al             57     -0.01025             -0.07342             -0.00058         *
 * Al             58     -0.08177              0.03930              0.13145         *
 * Al             59     -0.02014              0.09014             -0.28279         *
 * Al             60     -0.18058             -0.03484             -0.15268         *
 * Al             61     -0.00483              0.04799              0.00406         *
 * Al             62     -0.19600              0.00032              0.27890         *
 * Al             63      0.00159              0.08550             -0.00924         *
 * Ni              1     -0.03778              0.05260             -0.02383         *
 * Ni              2      0.01371             -0.00680              0.01316         *
 * Ni              3      0.01363              0.01835              0.03145         *
 * Ni              4      0.11253             -0.01435             -0.00499         *
 * Ni              5      0.16624             -0.01367             -0.02797         *
 * Ni              6      0.19701              0.03881              0.02845         *
 * Ni              7      0.12113              0.20907              0.29960         *
 * Ni              8      0.02973             -0.01034              0.01312         *
 * Ni              9      0.04303              0.00725             -0.01828         *
 * Ni             10     -0.00322              0.00036              0.02872         *
 * Ni             11      0.35270             -0.07483             -0.05120         *
 * Ni             12      0.22167              0.07724             -0.02711         *
 * Ni             13      0.09908             -0.15513              0.18120         *
 * Ni             14     -0.06037             -0.01528              0.00598         *
 * Ni             15     -0.08476             -0.02308              0.04553         *
 * Ni             16     -0.02182              0.00058             -0.01559         *
 * Ni             17      0.13248              0.11579              0.00669         *
 * Ni             18      0.12696             -0.00763             -0.16153         *
 * Ni             19      0.00237             -0.01709              0.07773         *
 * Ni             20      0.05332              0.01319              0.00744         *
 * Ni             21      0.00001             -0.00651             -0.00779         *
 * Ni             22      0.02627              0.01209             -0.01953         *
 * Ni             23      0.15277             -0.00910             -0.05430         *
 * Ni             24      0.05663             -0.10901             -0.11609         *
 * Ni             25      0.03643              0.03999              0.07934         *
 * Ni             26      0.04168              0.08681              0.01241         *
 * Ni             27      0.08275              0.00871             -0.04380         *
 * Ni             28      0.00199              0.01854             -0.05731         *
 * Ni             29      0.07258              0.07151             -0.02251         *
 * Ni             30      0.24307             -0.06853             -0.10250         *
 * Ni             31      0.17037              0.19778             -0.28973         *
 * Ni             32     -0.02514             -0.05932              0.02006         *
 * Ni             33     -0.05382              0.01927              0.01045         *
 * Ni             34     -0.05178             -0.08152             -0.01704         *
 * Ni             35      0.20225             -0.01477             -0.00011         *
 * Ni             36      0.25670              0.11114              0.05765         *
 * Ni             37      0.19807             -0.05970             -0.07082         *
 * Ni             38      0.02291             -0.03932              0.00966         *
 * Ni             39     -0.07635             -0.00246              0.02550         *
 * Ni             40     -0.01770             -0.04568             -0.01941         *
 * Ni             41      0.33628              0.05250             -0.02059         *
 * Ni             42      0.16906              0.06788             -0.07689         *
 * Ni             43      0.09141             -0.02525              0.02458         *
 * Ni             44      0.08693              0.00076             -0.00271         *
 * Ni             45     -0.03401             -0.00076              0.03846         *
 * Ni             46      0.00219              0.07491             -0.00271         *
 * Ni             47     -0.22742              0.11008              0.10673         *
 * Ni             48     -0.06655             -0.10775             -0.12152         *
 * Ni             49      0.22609             -0.05243             -0.00524         *
 * Ni             50     -0.01347             -0.01438             -0.01333         *
 * Ni             51     -0.00724              0.00752             -0.00569         *
 * Ni             52      0.05721             -0.01084              0.00759         *
 * Ni             53     -0.08252             -0.17316             -0.11210         *
 * Ni             54     -0.15833             -0.05909             -0.23551         *
 * Ni             55      0.09838              0.02756             -0.14457         *
 * Ni             56     -0.02089              0.01167             -0.03363         *
 * Ni             57      0.00028              0.00983              0.01164         *
 * Ni             58     -0.01897              0.01372             -0.03490         *
 * Ni             59     -0.01579              0.13420             -0.02178         *
 * Ni             60      0.09168             -0.14547             -0.04913         *
 * Ni             61      0.08968              0.05540             -0.16034         *
 * Ni             62     -0.00417             -0.02542             -0.01030         *
 * Ni             63     -0.11080              0.00097             -0.06150         *
 * Ni             64     -0.03761              0.01394              0.01522         *
 * Ni             65     -0.03493             -0.10717              0.11910         *
 * Ni             66      0.06829              0.03311             -0.02096         *
 * Ni             67      0.07239             -0.01520             -0.12918         *
 * Ni             68     -0.00194              0.00851             -0.01768         *
 * Ni             69     -0.04102             -0.02174             -0.02396         *
 * Ni             70     -0.00768             -0.02957             -0.00698         *
 * Ni             71     -0.29979              0.03820             -0.48752         *
 * Ni             72     -0.13828             -0.03306              0.13185         *
 * Ni             73      0.10534             -0.00717              0.03540         *
 * Ni             74      0.03271             -0.00169             -0.00513         *
 * Ni             75      0.10357             -0.00929              0.03462         *
 * Ni             76      0.01490             -0.03042              0.06207         *
 * Ni             77      0.08683             -0.05776             -0.09059         *
 * Ni             78     -0.06734              0.00962              0.10510         *
 * Ni             79      0.11899             -0.02712              0.12875         *
 * Ni             80      0.03687              0.02989              0.00481         *
 * Ni             81      0.01203              0.02685             -0.00879         *
 * Ni             82      0.00757             -0.00683             -0.01047         *
 * Ni             83      0.12796             -0.06036             -0.08843         *
 * Ni             84     -0.01278             -0.04463             -0.13242         *
 * Ni             85      0.12388             -0.00663              0.04783         *
 * Ni             86      0.00173              0.00131             -0.00718         *
 * Ni             87     -0.00816             -0.01010             -0.00772         *
 * Ni             88     -0.04888              0.02410              0.02116         *
 * Ni             89      0.12215              0.11559             -0.15509         *
 * Ni             90     -0.28154             -0.35169             -0.11863         *
 * Ni             91      0.13619              0.05064             -0.00554         *
 * Ni             92      0.01256             -0.03323              0.01838         *
 * Ni             93      0.00013             -0.00535             -0.03597         *
 * Ni             94      0.01983              0.01170              0.01402         *
 * Ni             95     -0.13606             -0.06567              0.11110         *
 * Ni             96     -0.38318              0.27932             -0.12293         *
 * Ni             97     -0.30515              0.31387              0.00528         *
 * Ni             98      0.01865             -0.18322              0.15882         *
 * Ni             99      0.00177              0.28425              0.08912         *
 * Ni            100      0.24813              0.07832              0.20606         *
 * Ni            101     -0.22115              0.00701             -0.10607         *
 * Ni            102      0.02396             -0.08711              0.14117         *
 * Ni            103      0.09058              0.02073              0.04002         *
 * Ni            104      0.06514             -0.23765              0.40151         *
 * Ni            105     -0.02874             -0.17910              0.00488         *
 * Ni            106      0.31280             -0.05527              0.04826         *
 * Ni            107     -0.20316             -0.15649             -0.01678         *
 * Ni            108     -0.06980              0.00091              0.01369         *
 * Ni            109      0.01775             -0.00870             -0.04430         *
 * Ni            110     -0.12129             -0.17024              0.14961         *
 * Ni            111     -0.22974             -0.04507             -0.04746         *
 * Ni            112      0.02896             -0.14531             -0.03951         *
 * Ni            113      0.26144              0.13267              0.07427         *
 * Ni            114      0.01062             -0.00053              0.00962         *
 * Ni            115     -0.05736              0.00562              0.14545         *
 * Ni            116      0.12473              0.23243              0.14761         *
 * Ni            117      0.06494              0.02757              0.14272         *
 * Ni            118      0.13723             -0.00966              0.12244         *
 * Ni            119      0.16689              0.12344              0.05670         *
 * Ni            120     -0.02180              0.06360             -0.26478         *
 * Ni            121     -0.12023             -0.07946              0.23628         *
 * Ni            122     -0.17234             -0.06316              0.12654         *
 * Ni            123      0.03007              0.13858             -0.15947         *
 * Ni            124      0.09036             -0.11389              0.01951         *
 * Ni            125      0.21703              0.32025             -0.13155         *
 * Ni            126     -0.26653             -0.13586              0.11347         *
 * Ni            127     -0.02317             -0.04219             -0.19863         *
 * Ni            128     -0.14734             -0.14687              0.00226         *
 * Ni            129      0.02963              0.14287             -0.12308         *
 * Ni            130      0.01974              0.09504              0.02791         *
 * Ni            131      0.06438             -0.05357              0.14185         *
 * Ni            132      0.13468             -0.02334              0.02894         *
 * Ni            133      0.10494             -0.28978             -0.15257         *
 * Ni            134     -0.12286              0.01546              0.24572         *
 * Ni            135     -0.16675              0.06732              0.13108         *
 * Ni            136     -0.09989              0.08034             -0.17292         *
 * Ni            137     -0.26519             -0.43472             -0.04959         *
 * Ni            138      0.12136              0.08348             -0.02315         *
 * Ni            139     -0.13427             -0.03875             -0.09509         *
 * Ni            140      0.12360             -0.03439             -0.00711         *
 * Ni            141     -0.13092              0.04985              0.20629         *
 * Ni            142      0.21408              0.07971             -0.08868         *
 * Ni            143      0.32495              0.37000             -0.22112         *
 * Ni            144     -0.12995             -0.03104              0.02055         *
 * Ni            145      0.19755              0.06241             -0.07113         *
 * Ni            146     -0.35732             -0.11056              0.09098         *
 * Ni            147      0.00743             -0.02858              0.12427         *
 * Ni            148      0.26454              0.09420             -0.01329         *
 * Ni            149      0.22165             -0.03208             -0.23990         *
 * Ni            150      0.07454             -0.09180              0.27440         *
 * Ni            151     -0.30517             -0.03758              0.01975         *
 * Ni            152      0.02874             -0.03152             -0.06499         *
 * Ni            153     -0.09389              0.15016             -0.26568         *
 * Ni            154      0.25540              0.21404              0.01785         *
 * Ni            155     -0.00133             -0.12929              0.05945         *
 * Ni            156     -0.04856             -0.13410             -0.29499         *
 * Ni            157      0.25023              0.05380             -0.26610         *
 * Ni            158     -0.18121              0.09076              0.23675         *
 * Ni            159     -0.16265             -0.05087              0.11572         *
 * Ni            160     -0.25861              0.18068              0.24046         *
 * Ni            161      0.01499              0.07165              0.13056         *
 * Ni            162      0.00912             -0.13391              0.07928         *
 * Ni            163      0.09137              0.06565              0.26336         *
 * Ni            164      0.31829             -0.10903             -0.09194         *
 * Ni            165     -0.32527              0.08297              0.17210         *
 * Ni            166     -0.11677             -0.00331             -0.03526         *
 * Ni            167     -0.06127             -0.17142              0.10521         *
 * Ni            168     -0.24091              0.16299              0.22637         *
 * Ni            169     -0.03168             -0.12341             -0.05538         *
 * Ni            170      0.08935              0.26943              0.00988         *
 * Ni            171      0.26825              0.12968              0.33254         *
 * Ni            172      0.28255             -0.14447              0.01817         *
 * Ni            173     -0.27658              0.25777             -0.08772         *
 * Ni            174     -0.05797              0.01021              0.10950         *
 * Ni            175      0.00347             -0.03420             -0.01665         *
 * Ni            176      0.00641             -0.05077              0.22044         *
 * Ni            177      0.06471             -0.00656             -0.17769         *
 * Ni            178      0.08075              0.07389             -0.23030         *
 * Ni            179      0.28965             -0.07175              0.07905         *
 * Ni            180     -0.07270              0.02761             -0.10842         *
 * Ni            181     -0.09977             -0.03932              0.04680         *
 * Ni            182     -0.17274             -0.16545             -0.09732         *
 * Ni            183      0.06282              0.09391              0.36097         *
 * Ni            184     -0.15033              0.16061              0.00421         *
 * Ni            185      0.14967             -0.05420              0.02016         *
 * Ni            186     -0.00888             -0.10582             -0.13822         *
 * Ni            187     -0.07176             -0.10919             -0.18480         *
 * Ni            188      0.04341              0.18615             -0.07103         *
 * Ni            189     -0.05770              0.08125              0.27621         *
 * Ni            190      0.12923             -0.02683             -0.20523         *
 * Ni            191     -0.05980              0.04030             -0.10625         *
 * Ni            192      0.08321             -0.01876             -0.13322         *
 *                                                                                  *
 ************************************************************************************
 LBFGS: finished iteration     0 with enthalpy= -2.71384765E+005 eV
  
 +-----------+-----------------+-----------------+------------+-----+ <-- LBFGS
 | Parameter |      value      |    tolerance    |    units   | OK? | <-- LBFGS
 +-----------+-----------------+-----------------+------------+-----+ <-- LBFGS
 |  dE/ion   |   0.000000E+000 |   2.000000E-005 |         eV | No  | <-- LBFGS
 |  |F|max   |   9.103135E-001 |   5.000000E-002 |       eV/A | No  | <-- LBFGS
 |  |dR|max  |   0.000000E+000 |   1.000000E-003 |          A | No  | <-- LBFGS
 +-----------+-----------------+-----------------+------------+-----+ <-- LBFGS
  

================================================================================
 Starting LBFGS iteration          1 ...
================================================================================
  
 +------------+-------------+-------------+-----------------+ <-- min LBFGS
 |    Step    |   lambda    |   F.delta'  |    enthalpy     | <-- min LBFGS
 +------------+-------------+-------------+-----------------+ <-- min LBFGS
 |  previous  |    0.000000 |    2.059591 |  -271384.765365 | <-- min LBFGS
 +------------+-------------+-------------+-----------------+ <-- min LBFGS
  

--------------------------------------------------------------------------------
 LBFGS: starting iteration         1 with trial guess (lambda=  1.000000)
--------------------------------------------------------------------------------
 
                           -------------------------------
                                     Cell Contents
                           -------------------------------
 
            xxxxxxxxxxxxxxxxxxxxxxxxxxxxxxxxxxxxxxxxxxxxxxxxxxxxxxxxxxxxxxxxx
            x  Element         Atom        Fractional coordinates of atoms  x
            x                 Number           u          v          w      x
            x---------------------------------------------------------------x
            x  Al                1         0.569792   0.308621   0.065055   x
            x  Al                2         0.817957   0.309629   0.062663   x
            x  Al                3         0.568868   0.558710   0.066467   x
            x  Al                4         0.817361   0.558385   0.063173   x
            x  Al                5         0.574848   0.809258   0.059652   x
            x  Al                6         0.818759   0.807920   0.061958   x
            x  Al                7         0.571804   0.059187   0.062778   x
            x  Al                8         0.819562   0.059519   0.061545   x
            x  Al                9         0.569814   0.306128   0.313162   x
            x  Al               10         0.819191   0.308384   0.312556   x
            x  Al               11         0.573379   0.555023   0.312598   x
            x  Al               12         0.818126   0.558918   0.312632   x
            x  Al               13         0.577696   0.814994   0.312702   x
            x  Al               14         0.819656   0.808952   0.312388   x
            x  Al               15         0.574712   0.057060   0.308728   x
            x  Al               16         0.820463   0.058868   0.312166   x
            x  Al               17         0.575820   0.302857   0.560425   x
            x  Al               18         0.818655   0.309213   0.562828   x
            x  Al               19         0.573222   0.564161   0.559738   x
            x  Al               20         0.817737   0.559165   0.562529   x
            x  Al               21         0.575172   0.809577   0.566089   x
            x  Al               22         0.819522   0.808399   0.563822   x
            x  Al               23         0.577657   0.057875   0.569197   x
            x  Al               24         0.820525   0.058409   0.564018   x
            x  Al               25         0.570999   0.309942   0.812000   x
            x  Al               26         0.817584   0.310507   0.813263   x
            x  Al               27         0.568345   0.558297   0.812775   x
            x  Al               28         0.817102   0.558174   0.813054   x
            x  Al               29         0.570294   0.808089   0.813856   x
            x  Al               30         0.819182   0.807414   0.813637   x
            x  Al               31         0.572076   0.058933   0.812503   x
            x  Al               32         0.819946   0.059404   0.814090   x
            x  Al               33         0.328878   0.183249   0.934615   x
            x  Al               34         0.056120   0.058343   0.808425   x
            x  Al               35         0.192520   0.190653   0.805024   x
            x  Al               36         0.321910   0.935690   0.939183   x
            x  Al               37         0.192758   0.929936   0.805321   x
            x  Al               38         0.318558   0.689590   0.944152   x
            x  Al               39         0.074708   0.687197   0.929725   x
            x  Al               40         0.197370   0.186625   0.572013   x
            x  Al               41         0.066197   0.807053   0.566083   x
            x  Al               42         0.325685   0.685628   0.688393   x
            x  Al               43         0.192983   0.670139   0.563440   x
            x  Al               44         0.325077   0.427602   0.687865   x
            x  Al               45         0.327575   0.555990   0.819333   x
            x  Al               46         0.198344   0.432145   0.547094   x
            x  Al               47         0.065857   0.435116   0.684587   x
            x  Al               48         0.317872   0.059846   0.311656   x
            x  Al               49         0.441057   0.056807   0.445010   x
            x  Al               50         0.185895   0.054370   0.184725   x
            x  Al               51         0.066176   0.182490   0.440917   x
            x  Al               52         0.433957   0.815759   0.439894   x
            x  Al               53         0.069835   0.945629   0.441770   x
            x  Al               54         0.200714   0.809923   0.431818   x
            x  Al               55         0.432621   0.678646   0.311023   x
            x  Al               56         0.437486   0.432531   0.545586   x
            x  Al               57         0.193423   0.425559   0.319511   x
            x  Al               58         0.187322   0.186967   0.058296   x
            x  Al               59         0.434529   0.817002   0.185162   x
            x  Al               60         0.191746   0.812308   0.187226   x
            x  Al               61         0.192085   0.426494   0.056749   x
            x  Al               62         0.191221   0.427430   0.822160   x
            x  Al               63         0.188982   0.565223   0.186225   x
            x  Ni                1         0.566321   0.431773   0.190715   x
            x  Ni                2         0.694043   0.308250   0.188475   x
            x  Ni                3         0.692560   0.433806   0.064401   x
            x  Ni                4         0.818093   0.433914   0.187950   x
            x  Ni                5         0.942854   0.309435   0.187425   x
            x  Ni                6         0.942452   0.434351   0.062638   x
            x  Ni                7         0.564277   0.687740   0.191778   x
            x  Ni                8         0.692803   0.559064   0.188563   x
            x  Ni                9         0.692862   0.682743   0.063979   x
            x  Ni               10         0.818698   0.683407   0.187582   x
            x  Ni               11         0.942584   0.558775   0.187658   x
            x  Ni               12         0.942729   0.683088   0.062491   x
            x  Ni               13         0.569262   0.932758   0.185235   x
            x  Ni               14         0.695657   0.809094   0.186540   x
            x  Ni               15         0.695864   0.934394   0.061262   x
            x  Ni               16         0.820126   0.933822   0.186388   x
            x  Ni               17         0.943013   0.808303   0.187067   x
            x  Ni               18         0.943381   0.933395   0.061954   x
            x  Ni               19         0.568782   0.183163   0.187736   x
            x  Ni               20         0.696104   0.058623   0.185898   x
            x  Ni               21         0.694106   0.184485   0.062390   x
            x  Ni               22         0.819326   0.184130   0.186962   x
            x  Ni               23         0.943453   0.058985   0.186853   x
            x  Ni               24         0.943187   0.184747   0.062219   x
            x  Ni               25         0.568753   0.432230   0.437732   x
            x  Ni               26         0.694951   0.306636   0.436531   x
            x  Ni               27         0.694414   0.432191   0.313251   x
            x  Ni               28         0.818326   0.433907   0.437614   x
            x  Ni               29         0.942757   0.309254   0.438057   x
            x  Ni               30         0.942485   0.434207   0.312803   x
            x  Ni               31         0.564630   0.689451   0.433022   x
            x  Ni               32         0.693884   0.560203   0.436676   x
            x  Ni               33         0.694222   0.684646   0.312471   x
            x  Ni               34         0.819019   0.684268   0.437537   x
            x  Ni               35         0.942427   0.559061   0.437932   x
            x  Ni               36         0.942995   0.683716   0.312640   x
            x  Ni               37         0.568768   0.935363   0.440248   x
            x  Ni               38         0.695593   0.810244   0.438395   x
            x  Ni               39         0.697775   0.935198   0.312224   x
            x  Ni               40         0.820655   0.933749   0.438365   x
            x  Ni               41         0.943395   0.808516   0.438122   x
            x  Ni               42         0.943420   0.933542   0.312395   x
            x  Ni               43         0.569810   0.177370   0.437545   x
            x  Ni               44         0.696219   0.057442   0.438265   x
            x  Ni               45         0.695582   0.182484   0.312257   x
            x  Ni               46         0.820049   0.183145   0.437589   x
            x  Ni               47         0.943899   0.058680   0.438205   x
            x  Ni               48         0.943403   0.183993   0.312442   x
            x  Ni               49         0.565902   0.434249   0.680437   x
            x  Ni               50         0.694280   0.309714   0.687656   x
            x  Ni               51         0.693786   0.433946   0.561233   x
            x  Ni               52         0.817740   0.434590   0.687739   x
            x  Ni               53         0.942812   0.309960   0.688219   x
            x  Ni               54         0.942452   0.434475   0.562992   x
            x  Ni               55         0.567172   0.683824   0.688656   x
            x  Ni               56         0.692514   0.558860   0.687205   x
            x  Ni               57         0.694391   0.684933   0.562039   x
            x  Ni               58         0.818284   0.682875   0.688400   x
            x  Ni               59         0.942521   0.558850   0.688032   x
            x  Ni               60         0.942714   0.683484   0.563280   x
            x  Ni               61         0.570610   0.933064   0.690533   x
            x  Ni               62         0.695399   0.807910   0.690081   x
            x  Ni               63         0.697365   0.933449   0.564734   x
            x  Ni               64         0.820285   0.933067   0.689602   x
            x  Ni               65         0.943318   0.807863   0.688704   x
            x  Ni               66         0.943737   0.933322   0.563824   x
            x  Ni               67         0.571004   0.183586   0.688790   x
            x  Ni               68         0.697676   0.058637   0.690688   x
            x  Ni               69         0.697803   0.182477   0.563328   x
            x  Ni               70         0.819700   0.184838   0.689223   x
            x  Ni               71         0.943581   0.058964   0.688819   x
            x  Ni               72         0.942916   0.184259   0.563498   x
            x  Ni               73         0.567338   0.434227   0.940259   x
            x  Ni               74         0.692484   0.309766   0.938378   x
            x  Ni               75         0.690879   0.434731   0.811890   x
            x  Ni               76         0.816933   0.434354   0.937926   x
            x  Ni               77         0.942815   0.310061   0.937682   x
            x  Ni               78         0.942525   0.434551   0.812977   x
            x  Ni               79         0.567598   0.683417   0.938652   x
            x  Ni               80         0.691808   0.558282   0.938813   x
            x  Ni               81         0.692946   0.682278   0.813312   x
            x  Ni               82         0.817798   0.682300   0.938118   x
            x  Ni               83         0.942485   0.558532   0.937890   x
            x  Ni               84         0.942797   0.682769   0.813198   x
            x  Ni               85         0.569132   0.934441   0.936820   x
            x  Ni               86         0.695035   0.807910   0.937022   x
            x  Ni               87         0.695599   0.933327   0.813987   x
            x  Ni               88         0.819613   0.933675   0.937532   x
            x  Ni               89         0.942999   0.807811   0.937773   x
            x  Ni               90         0.943784   0.933229   0.813425   x
            x  Ni               91         0.568109   0.183807   0.937787   x
[...]
             Al 43 -- Ni 133                 0.20         0.00          2.59107
             Al 3  -- Ni 80                  0.20        -0.00          2.59112
             Al 25 -- Ni 73                  0.20        -0.00          2.59137
            Ni 49  -- Ni 174                 0.03         0.00          2.59152
            Ni 107 -- Ni 108                 0.04        -0.00          2.59174
             Al 19 -- Ni 25                  0.20         0.00          2.59192
            Ni 110 -- Ni 112                 0.05         0.00          2.59221
             Al 51 -- Ni 145                 0.19         0.00          2.59223
             Al 14 -- Ni 16                  0.19         0.00          2.59229
            Ni 13  -- Ni 120                 0.04        -0.00          2.59242
            Ni 116 -- Ni 118                 0.02         0.00          2.59249
             Al 34 -- Ni 162                 0.16         0.00          2.59342
             Al 15 -- Ni 44                  0.20        -0.00          2.59346
            Ni 59  -- Ni 78                 -0.00         0.00          2.59355
            Ni 101 -- Ni 144                 0.09        -0.00          2.59362
             Al 9  -- Ni 43                  0.21         0.00          2.59365
            Ni 37  -- Ni 139                -0.02        -0.00          2.59367
            Ni 67  -- Ni 165                 0.03        -0.00          2.59374
             Al 27 -- Ni 182                 0.17         0.00          2.59403
             Al 60 -- Ni 106                 0.19        -0.00          2.59412
             Al 17 -- Ni 126                 0.15         0.00          2.59413
             Al 1  -- Ni 101                 0.17         0.00          2.59422
             Al 55 -- Ni 31                  0.18        -0.00          2.59434
            Ni 143 -- Ni 167                 0.01         0.00          2.59436
            Ni 25  -- Ni 27                  0.06         0.00          2.59450
            Ni 150 -- Ni 178                 0.07         0.00          2.59465
             Al 23 -- Ni 165                 0.18        -0.00          2.59525
             Al 27 -- Ni 80                  0.19         0.00          2.59534
            Ni 35  -- Ni 129                 0.09        -0.00          2.59545
             Al 47 -- Ni 150                 0.22         0.00          2.59554
            Ni 13  -- Ni 139                -0.01         0.00          2.59555
            Ni 29  -- Ni 72                  0.01         0.00          2.59567
            Ni 121 -- Ni 191                 0.00        -0.00          2.59570
             Al 46 -- Ni 170                 0.17        -0.00          2.59575
            Ni 37  -- Ni 159                -0.02        -0.00          2.59576
             Al 43 -- Ni 155                 0.19        -0.00          2.59603
             Al 36 -- Ni 190                 0.17        -0.00          2.59642
            Ni 133 -- Ni 160                -0.03        -0.00          2.59645
             Al 60 -- Ni 113                 0.19        -0.00          2.59648
             Al 11 -- Ni 107                 0.17         0.00          2.59649
            Ni 147 -- Ni 170                -0.03         0.00          2.59661
            Ni 47  -- Ni 48                 -0.01         0.00          2.59671
             Al 22 -- Ni 62                  0.19         0.00          2.59687
            Ni 71  -- Ni 96                  0.01        -0.00          2.59706
            Ni 155 -- Ni 156                 0.06         0.00          2.59711
             Al 46 -- Ni 149                 0.13        -0.00          2.59713
             Al 38 -- Ni 181                 0.18        -0.00          2.59740
            Ni 111 -- Ni 186                 0.08         0.00          2.59785
            Ni 13  -- Ni 20                  0.06         0.00          2.59787
             Al 15 -- Ni 37                  0.19         0.00          2.59816
            Ni 41  -- Ni 66                 -0.03         0.00          2.59817
            Ni 99  -- Ni 169                 0.01        -0.00          2.59823
            Ni 25  -- Ni 134                -0.00        -0.00          2.59825
            Ni 55  -- Ni 151                 0.08        -0.00          2.59825
            Ni 98  -- Ni 99                  0.01        -0.00          2.59828
            Ni 152 -- Ni 158                 0.02         0.00          2.59989
            Ni 174 -- Ni 182                -0.00        -0.00          2.59991
             Al 40 -- Ni 145                 0.16        -0.00          2.60031
             Al 41 -- Ni 129                 0.20         0.00          2.60065
             Al 11 -- Ni 7                   0.19        -0.00          2.60080
            Ni 112 -- Ni 122                 0.11         0.00          2.60112
            Ni 111 -- Ni 115                 0.04         0.00          2.60114
            Ni 117 -- Ni 122                 0.04         0.00          2.60141
            Ni 95  -- Ni 96                  0.01         0.00          2.60157
             Al 24 -- Ni 46                  0.18        -0.00          2.60167
            Ni 100 -- Ni 103                 0.09        -0.00          2.60179
             Al 51 -- Ni 142                 0.17         0.00          2.60209
            Ni 156 -- Ni 167                 0.12         0.00          2.60233
            Ni 155 -- Ni 157                 0.07        -0.00          2.60271
            Ni 53  -- Ni 78                  0.01         0.00          2.60300
            Ni 169 -- Ni 171                -0.00        -0.00          2.60312
             Al 48 -- Ni 141                 0.17        -0.00          2.60318
             Al 58 -- Ni 117                 0.15        -0.00          2.60340
             Al 11 -- Ni 33                  0.19         0.00          2.60345
             Al 38 -- Ni 188                 0.17        -0.00          2.60348
             Al 43 -- Ni 150                 0.17         0.00          2.60359
             Al 9  -- Ni 127                 0.16         0.00          2.60366
             Al 16 -- Ni 40                  0.19        -0.00          2.60432
            Ni 129 -- Ni 149                 0.08         0.00          2.60462
            Ni 55  -- Ni 57                  0.03         0.00          2.60463
            Ni 41  -- Ni 42                  0.03        -0.00          2.60491
            Ni 142 -- Ni 143                 0.03        -0.00          2.60531
            Ni 53  -- Ni 54                 -0.00         0.00          2.60549
             Al 45 -- Ni 150                 0.15        -0.00          2.60556
            Ni 146 -- Ni 174                 0.01         0.00          2.60567
            Ni 13  -- Ni 39                  0.01         0.00          2.60623
            Ni 54  -- Ni 59                 -0.00         0.00          2.60696
            Ni 170 -- Ni 171                -0.02         0.00          2.60784
             Al 38 -- Ni 177                 0.17        -0.00          2.60791
             Al 27 -- Ni 151                 0.17         0.00          2.60854
            Ni 71  -- Ni 90                  0.02         0.00          2.60856
            Ni 138 -- Ni 139                -0.02        -0.00          2.60903
            Ni 169 -- Ni 172                 0.01        -0.00          2.60923
            Ni 113 -- Ni 139                 0.01        -0.00          2.60930
            Ni 172 -- Ni 177                -0.02        -0.00          2.60983
            Ni 152 -- Ni 153                 0.12        -0.00          2.61016
            Ni 47  -- Ni 163                 0.06         0.00          2.61064
             Al 61 -- Ni 104                 0.15        -0.00          2.61081
            Ni 1   -- Ni 8                   0.03         0.00          2.61088
            Ni 138 -- Ni 159                 0.02         0.00          2.61092
             Al 61 -- Ni 100                 0.18         0.00          2.61099
            Ni 161 -- Ni 162                -0.01         0.00          2.61122
            Ni 173 -- Ni 192                -0.00        -0.00          2.61130
            Ni 60  -- Ni 65                  0.01        -0.00          2.61153
            Ni 150 -- Ni 153                -0.01        -0.00          2.61174
             Al 25 -- Ni 49                  0.19         0.00          2.61181
            Ni 129 -- Ni 132                 0.11         0.00          2.61237
             Al 34 -- Ni 122                 0.16         0.00          2.61279
             Al 63 -- Ni 100                 0.17         0.00          2.61326
             Al 58 -- Ni 119                 0.17         0.00          2.61336
             Al 53 -- Ni 137                 0.18         0.00          2.61348
             Al 48 -- Ni 120                 0.18        -0.00          2.61368
            Ni 102 -- Ni 109                 0.00         0.00          2.61384
            Ni 117 -- Ni 191                 0.08         0.00          2.61386
             Al 44 -- Al 56                  0.30        -0.00          2.61473
            Ni 138 -- Ni 160                 0.05        -0.00          2.61504
            Ni 65  -- Ni 148                 0.04         0.00          2.61511
            Ni 168 -- Ni 177                 0.04        -0.00          2.61579
             Al 51 -- Ni 163                 0.16         0.00          2.61592
            Ni 121 -- Ni 173                 0.01        -0.00          2.61604
            Ni 158 -- Ni 181                -0.01         0.00          2.61614
            Ni 152 -- Ni 160                 0.02        -0.00          2.61671
            Ni 140 -- Ni 141                 0.07        -0.00          2.61680
             Al 35 -- Ni 122                 0.18         0.00          2.61706
            Ni 178 -- Ni 185                 0.08        -0.00          2.61707
             Al 11 -- Ni 31                  0.19        -0.00          2.61714
            Ni 1   -- Ni 127                 0.02        -0.00          2.61771
            Ni 110 -- Ni 118                 0.04         0.00          2.61773
             Al 9  -- Ni 144                 0.18        -0.00          2.61774
            Ni 115 -- Ni 117                 0.09         0.00          2.61819
            Ni 151 -- Ni 152                 0.04         0.00          2.61832
            Ni 26  -- Ni 43                  0.05         0.00          2.61844
             Al 21 -- Ni 159                 0.15        -0.00          2.61848
             Al 50 -- Ni 117                 0.15         0.00          2.61907
            Ni 159 -- Ni 160                 0.09         0.00          2.61963
            Ni 178 -- Ni 179                 0.06         0.00          2.61976
             Al 11 -- Ni 127                 0.15         0.00          2.62025
            Ni 178 -- Ni 184                 0.03        -0.00          2.62123
            Ni 42  -- Ni 47                 -0.01         0.00          2.62165
            Ni 65  -- Ni 66                  0.01        -0.00          2.62167
             Al 27 -- Ni 49                  0.20        -0.00          2.62179
             Al 58 -- Ni 122                 0.17         0.00          2.62196
             Al 21 -- Ni 31                  0.20         0.00          2.62255
            Ni 114 -- Ni 138                 0.01        -0.00          2.62288
             Al 38 -- Ni 178                 0.16        -0.00          2.62349
            Ni 102 -- Ni 108                 0.10         0.00          2.62435
            Ni 158 -- Ni 160                 0.11         0.00          2.62442
            Ni 37  -- Ni 39                  0.01         0.00          2.62506
             Al 19 -- Ni 151                 0.17         0.00          2.62547
             Al 36 -- Ni 184                 0.18         0.00          2.62590
            Ni 136 -- Ni 141                 0.01        -0.00          2.62595
             Al 38 -- Ni 182                 0.16        -0.00          2.62606
             Al 23 -- Ni 166                 0.15        -0.00          2.62632
             Al 36 -- Ni 122                 0.17         0.00          2.62704
            Ni 25  -- Ni 126                -0.00        -0.00          2.62797
             Al 46 -- Ni 145                 0.11         0.00          2.62822
             Al 19 -- Ni 31                  0.17         0.00          2.62837
             Al 5  -- Ni 7                   0.18        -0.00          2.62913
             Al 52 -- Ni 37                  0.15        -0.00          2.62985
             Al 5  -- Ni 115                 0.15         0.00          2.63027
            Ni 154 -- Ni 155                 0.06        -0.00          2.63206
             Al 57 -- Ni 97                  0.14        -0.00          2.63232
            Ni 155 -- Ni 188                 0.03         0.00          2.63279
            Ni 156 -- Ni 157                 0.12         0.00          2.63402
             Al 40 -- Ni 143                 0.16        -0.00          2.63437
             Al 39 -- Ni 178                 0.18         0.00          2.63472
            Ni 108 -- Ni 111                 0.02         0.00          2.63569
            Ni 123 -- Ni 124                 0.01        -0.00          2.63588
            Ni 170 -- Ni 175                -0.04         0.00          2.63898
             Al 37 -- Ni 190                 0.15         0.00          2.63909
            Ni 114 -- Ni 133                -0.03        -0.00          2.64029
            Ni 49  -- Ni 75                  0.05         0.00          2.64070
            Ni 162 -- Ni 164                 0.01        -0.00          2.64097
            Ni 156 -- Ni 162                 0.13         0.00          2.64098
            Ni 151 -- Ni 181                -0.01         0.00          2.64503
            Ni 7   -- Ni 107                 0.01         0.00          2.64522
             Al 3  -- Ni 7                   0.18        -0.00          2.64533
             Al 50 -- Al 58                  0.24         0.00          2.64588
             Al 13 -- Ni 139                 0.16         0.00          2.64637
            Ni 7   -- Ni 8                   0.05         0.00          2.64724
             Al 59 -- Ni 7                   0.15        -0.00          2.64803
             Al 48 -- Al 50                  0.25        -0.00          2.64855
             Al 23 -- Ni 159                 0.13        -0.00          2.64876
             Al 42 -- Ni 153                 0.15         0.00          2.64903
             Al 33 -- Ni 122                 0.15         0.00          2.65042
             Al 43 -- Ni 160                 0.15         0.00          2.65132
             Al 44 -- Ni 153                 0.12         0.00          2.65152
             Al 35 -- Ni 189                 0.15         0.00          2.65162
             Al 35 -- Ni 190                 0.13         0.00          2.65200
             Al 37 -- Ni 122                 0.15         0.00          2.65330
             Al 52 -- Ni 31                  0.15        -0.00          2.65479
             Al 48 -- Al 49                  0.26        -0.00          2.65545
            Ni 106 -- Ni 135                -0.01         0.00          2.65671
            Ni 31  -- Ni 32                  0.04         0.00          2.65730
             Al 57 -- Ni 132                 0.11         0.00          2.65737
            Ni 161 -- Ni 170                 0.04        -0.00          2.66190
            Ni 7   -- Ni 9                   0.06         0.00          2.66359
             Al 38 -- Al 45                  0.23        -0.00          2.66390
             Al 42 -- Al 43                  0.25        -0.00          2.66721
             Al 50 -- Ni 119                 0.13         0.00          2.66860
             Al 23 -- Al 49                  0.24         0.00          2.67013
            Ni 31  -- Ni 57                  0.05         0.00          2.67117
            Ni 148 -- Ni 150                 0.08        -0.00          2.67192
            Ni 149 -- Ni 150                 0.02         0.00          2.68012
            Ni 168 -- Ni 169                 0.02         0.00          2.68303
             Al 46 -- Ni 150                 0.11         0.00          2.69256
             Al 44 -- Al 45                  0.21         0.00          2.69976
             Al 5  -- Al 59                  0.20         0.00          2.70956
             Al 45 -- Al 62                  0.18         0.00          2.71635
             Al 42 -- Al 45                  0.21        -0.00          2.71679
            Ni 164 -- Ni 170                 0.03         0.00          2.71905
             Al 11 -- Al 55                  0.20         0.00          2.72081
             Al 36 -- Al 37                  0.22        -0.00          2.72170
             Al 56 -- Ni 146                 0.07        -0.00          2.72814
             Al 34 -- Al 35                  0.20         0.00          2.72898
             Al 55 -- Al 59                  0.21         0.00          2.72976
             Al 56 -- Ni 151                 0.08        -0.00          2.73090
             Al 21 -- Al 52                  0.20         0.00          2.73911
             Al 33 -- Al 58                  0.20         0.00          2.74100
             Al 34 -- Al 37                  0.19         0.00          2.74392
             Al 44 -- Al 46                  0.21         0.00          2.74570
             Al 61 -- Al 63                  0.20         0.00          2.74646
             Al 41 -- Al 43                  0.18         0.00          2.74849
             Al 33 -- Al 35                  0.20         0.00          2.75063
             Al 52 -- Al 55                  0.20         0.00          2.75368
             Al 17 -- Al 56                  0.17         0.00          2.75701
             Al 56 -- Ni 49                  0.11         0.00          2.75764
             Al 47 -- Al 62                  0.17         0.00          2.76646
             Al 53 -- Al 54                  0.18         0.00          2.77578
             Al 40 -- Al 51                  0.20         0.00          2.77679
             Al 15 -- Al 49                  0.19        -0.00          2.77767
             Al 19 -- Al 56                  0.17         0.00          2.77885
             Al 42 -- Ni 150                 0.11        -0.00          2.78831
             Al 43 -- Al 54                  0.16         0.00          2.78894
             Al 57 -- Al 63                  0.15        -0.00          2.79943
             Al 41 -- Al 53                  0.17         0.00          2.80133
             Al 44 -- Al 62                  0.15         0.00          2.81777
             Al 13 -- Al 59                  0.16         0.00          2.82919
             Al 13 -- Al 52                  0.17         0.00          2.84190
             Al 41 -- Al 54                  0.12         0.00          2.87789
             Al 46 -- Al 47                  0.13         0.00          2.88117
             Al 13 -- Al 55                  0.08         0.00          2.94623
================================================================================
 

Writing analysis data to castep.castep_bin

Writing model to castep.check
 
 A BibTeX formatted list of references used in this run has been written to 
 castep.bib
 
Initialisation time =     14.38 s
Calculation time    =  24336.79 s
Finalisation time   =     13.30 s
Total time          =  24364.47 s
Peak Memory Use     = 2360300 kB
  
Overall parallel efficiency rating: Good (71%)                                  
  
Data was distributed by:-
G-vector (48-way); efficiency rating: Good (72%)                                
