 +-------------------------------------------------+
 |                                                 |
 |      CCC   AA    SSS  TTTTT  EEEEE  PPPP        |
 |     C     A  A  S       T    E      P   P       |
 |     C     AAAA   SS     T    EEE    PPPP        |
 |     C     A  A     S    T    E      P           |
 |      CCC  A  A  SSS     T    EEEEE  P           |
 |                                                 |
 +-------------------------------------------------+
 |                                                 |
 | Welcome to Academic Release CASTEP version 20.11|          
 | Ab Initio Total Energy Program                  |
 |                                                 |
 | Authors:                                        |
 | M. Segall, M. Probert, C. Pickard, P. Hasnip,   |
 | S. Clark, K. Refson, J. R. Yates, M. Payne      |
 |                                                 |
 | Contributors:                                   |
 | P. Lindan, P. Haynes, J. White, V. Milman,      |
 | N. Govind, M. Gibson, P. Tulip, V. Cocula,      |
 | B. Montanari, D. Quigley, M. Glover,            |
 | L. Bernasconi, A. Perlov, M. Plummer,           |
 | E. McNellis, J. Meyer, J. Gale, D. Jochym       |
 | J. Aarons, B. Walker, R. Gillen, D. Jones       |
 | T. Green, I. J. Bush, C. J. Armstrong,          |
 | E. J. Higgins, E. L. Brown, M. S. McFly,        |
 | J. Wilkins, B-C. Shih, P. J. P. Byrne,          |
 | R. J. Maurer, J. C. Womack, J. Dziedzic,        |
 | J. R. Kermode, A. Bartok-Partay                 |
 |                                                 |
 | Copyright (c) 2000 - 2020                       |
 |                                                 |
 |     Distributed under license from Cambridge    |
 |     Enterprise for academic use only.           |
 |                                                 |
 | Please cite                                     |
 |                                                 |
 |     "First principles methods using CASTEP"     |
 |                                                 |
 |         Zeitschrift fuer Kristallographie       |
 |           220(5-6) pp. 567-570 (2005)           |
 |                                                 |
 | S. J. Clark, M. D. Segall, C. J. Pickard,       |
 | P. J. Hasnip, M. J. Probert, K. Refson,         |
 | M. C. Payne                                     |
 |                                                 |
 |       in all publications arising from          |
 |              your use of CASTEP                 |
 |                                                 |
 +-------------------------------------------------+
 |                                                 |
 |              http://www.castep.org              |
 |                                                 |
 +-------------------------------------------------+
 
 
 
 Compiled for linux_x86_64_ifort on Wed, 25 Aug 2021 18:50:38 +0100
 from code version e772bf432+  HEAD  Sat Apr 3 17:41:32 2021 +0100
 Compiler: Intel Fortran 19.0.5.281; Optimisation: fast
 MATHLIBS: Intel MKL(2019.0.5) (LAPACK version 3.7.0)
 FFT Lib : mkl
 Fundamental constants values: CODATA 2014
 
 Run started: Thu, 09 Mar 2023 11:11:37 +0000
 
 Atomic calculation performed for Al: 1s2 2s2 2p6 3s2 3p1
 
 Converged in 52 iterations to an ae energy of -6606.982 eV
 
   ============================================================                
   | Pseudopotential Report - Date of generation  9-03-2023   |                
   ------------------------------------------------------------                
   | Element: Al Ionic charge:  3.00 Level of theory: RPBE    |                
   | Atomic Solver: Koelling-Harmon                           |                
   |                                                          |                
   |               Reference Electronic Structure             |                
   |         Orbital         Occupation         Energy        |                
   |            3s              2.000           -0.284        |                
   |            3p              1.000           -0.100        |                
   |                                                          |                
   |                 Pseudopotential Definition               |                
   |        Beta     l      e      Rc     scheme   norm       |                
   |          1      0   -0.284   2.192     qc      0         |                
   |          2      0    0.250   2.192     qc      0         |                
   |          3      1   -0.100   2.192     qc      0         |                
   |          4      1    0.250   2.192     qc      0         |                
   |          5      2    0.000   2.000     qc      0         |                
   |          6      2    0.250   2.000     qc      0         |                
   |         loc     3    0.000   2.192     pn      0         |                
   |                                                          |                
   | Augmentation charge Rinner = 1.398                       |                
   | Partial core correction Rc = 1.398                       |                
   ------------------------------------------------------------                
   | "3|2.2|2.2|1.4|4|5|5|30:31:32U2U2"                       |                
   ------------------------------------------------------------                
   |      Author: Chris J. Pickard, Cambridge University      |                
   ============================================================                
 
 Atomic calculation performed for Ni: 1s2 2s2 2p6 3s2 3p6 3d8 4s2
 
 Converged in 109 iterations to an ae energy of -41381.414 eV
 
   ============================================================                
   | Pseudopotential Report - Date of generation  9-03-2023   |                
   ------------------------------------------------------------                
   | Element: Ni Ionic charge: 10.00 Level of theory: RPBE    |                
   | Atomic Solver: Koelling-Harmon                           |                
   |                                                          |                
   |               Reference Electronic Structure             |                
   |         Orbital         Occupation         Energy        |                
   |            3d              8.000           -0.324        |                
   |            4s              2.000           -0.204        |                
   |                                                          |                
   |                 Pseudopotential Definition               |                
   |        Beta     l      e      Rc     scheme   norm       |                
   |          1      0   -0.204   2.401     qc      0         |                
   |          2      0    0.250   2.401     qc      0         |                
   |          3      1    0.000   2.401     qc      0         |                
   |          4      1    0.250   2.401     qc      0         |                
   |          5      2   -0.324   1.999     qc      0         |                
   |          6      2    0.250   1.999     qc      0         |                
   |         loc     3    0.000   2.401     pn      0         |                
   |                                                          |                
   | Augmentation charge Rinner = 1.001                       |                
   | Partial core correction Rc = 1.001                       |                
   ------------------------------------------------------------                
   | "3|2.4|2.4|1.0|8|9|10|40:41:32U2U2(qc=5.5)"              |                
   ------------------------------------------------------------                
   |      Author: Chris J. Pickard, Cambridge University      |                
   ============================================================                
 
 Pseudo atomic calculation performed for Al 3s2 3p1
 
 Converged in 13 iterations to a total energy of -107.6592 eV
 
 Pseudo atomic calculation performed for Ni 3d8 4s2
 
 Converged in 41 iterations to a total energy of -1369.7891 eV
 Calculation parallelised over 48 processes.
 Data is distributed by G-vector(48-way)

 ************************************ Title ************************************
 

 ***************************** General Parameters ******************************
  
 output verbosity                               : normal  (1)
 write checkpoint data to                       : castep.check
 type of calculation                            : geometry optimization
 stress calculation                             : off
 density difference calculation                 : off
 electron localisation func (ELF) calculation   : off
 Hirshfeld analysis                             : off
 molecular orbital projected DOS                : off
 deltaSCF calculation                           : off
 unlimited duration calculation
 timing information                             : on
 memory usage estimate                          : on
 write extra output files                       : on
 write final potential to formatted file        : off
 write final density to formatted file          : off
 write BibTeX reference list                    : on
 write OTFG pseudopotential files               : on
 write electrostatic potential file             : on
 write bands file                               : on
 checkpoint writing                             : both castep_bin and check files
  
 output         length unit                     : A
 output           mass unit                     : amu
 output           time unit                     : ps
 output         charge unit                     : e
 output           spin unit                     : hbar/2
 output         energy unit                     : eV
 output          force unit                     : eV/A
 output       velocity unit                     : A/ps
 output       pressure unit                     : GPa
 output     inv_length unit                     : 1/A
 output      frequency unit                     : cm-1
 output force constant unit                     : eV/A**2
 output         volume unit                     : A**3
 output   IR intensity unit                     : (D/A)**2/amu
 output         dipole unit                     : D
 output         efield unit                     : eV/A/e
 output        entropy unit                     : J/mol/K
 output    efield chi2 unit                     : pm/V
  
 wavefunctions paging                           : none
 random number generator seed                   : randomised (111137841)
 data distribution                              : optimal for this architecture
 optimization strategy                          : maximize speed(+++)

 *********************** Exchange-Correlation Parameters ***********************
  
 using functional                               : revised Perdew Burke Ernzerhof
 relativistic treatment                         : Koelling-Harmon
 DFT+D: Semi-empirical dispersion correction    : off

 ************************* Pseudopotential Parameters **************************
  
 pseudopotential representation                 : reciprocal space
 <beta|phi> representation                      : reciprocal space
 spin-orbit coupling                            : off

 **************************** Basis Set Parameters *****************************
  
 plane wave basis set cut-off                   :   900.0000   eV
 size of standard grid                          :     1.7500
 size of   fine   gmax                          :    26.8966   1/A
 finite basis set correction                    : none

 **************************** Electronic Parameters ****************************
  
 number of  electrons                           :  2109.    
 net charge of system                           :  0.000    
 net spin   of system                           :  1.000    
 number of  up  spins                           :  1055.    
 number of down spins                           :  1054.    
 treating system as spin-polarized
 number of bands                                :       1167

 ********************* Electronic Minimization Parameters **********************
  
 Method: Treating system as metallic with density mixing treatment of electrons,
         and number of  SD  steps               :          1
         and number of  CG  steps               :          4
  
 total energy / atom convergence tol.           : 0.1000E-05   eV
 eigen-energy convergence tolerance             : 0.2185E-06   eV
 max force / atom convergence tol.              : ignored
 convergence tolerance window                   :          3   cycles
 max. number of SCF cycles                      :        200
 number of fixed-spin iterations                :         10
 smearing scheme                                : Gaussian
 smearing width                                 : 0.2000       eV
 Fermi energy convergence tolerance             : 0.2721E-13   eV
 periodic dipole correction                     : NONE
 periodically dump wavefunctions to             : castep.wvfn
 dump wavefunctions every                       :          1   SCF cycles

 ************************** Density Mixing Parameters **************************
  
 density-mixing scheme                          : Pulay
 max. length of mixing history                  :         20
 charge density mixing amplitude                : 0.8000    
   spin density mixing amplitude                :  2.000    
 cut-off energy for mixing                      :  900.0       eV

 *********************** Population Analysis Parameters ************************
  
 Population analysis with cutoff                :  3.000       A
 Population analysis output                     : summary and pdos components

 ********************** Geometry Optimization Parameters ***********************
  
 optimization method                            : LBFGS
 max. no. of LBFGS updates                      : unbounded
 variable cell method                           : fixed basis quality
 max. number of steps                           :         30
 estimated bulk modulus                         :  500.0       GPa
 estimated <frequency>                          :  1668.       cm-1
 geom line minimiser                            : on
 with line minimiser tolerance                  :     0.4000
  with spin fully able to relax for all steps
 total energy convergence tolerance             : 0.2000E-04   eV/atom
        max ionic |force| tolerance             : 0.5000E-01   eV/A
 max ionic |displacement| tolerance             : 0.1000E-02   A
   max |stress component| tolerance             : 0.1000       GPa
 convergence tolerance window                   :          2   steps
 backup results every                           :          5   steps
 write geom trajectory file                     : on

 *******************************************************************************
  
 
                           -------------------------------
                                      Unit Cell
                           -------------------------------
        Real Lattice(A)                      Reciprocal Lattice(1/A)
    14.4648280     0.0000000     0.0000000        0.434376773   0.000000000   0.000000000
     0.0000000    14.4648280     0.0000000        0.000000000   0.434376773   0.000000000
     0.0000000     0.0000000    14.4648280        0.000000000   0.000000000   0.434376773
 
                       Lattice parameters(A)       Cell Angles
                    a =     14.464828          alpha =   90.000000
                    b =     14.464828          beta  =   90.000000
                    c =     14.464828          gamma =   90.000000
 
                       Current cell volume =          3026.494030       A**3
                                   density =             4.285146   AMU/A**3
                                           =             7.115653     g/cm^3
 
                           -------------------------------
                                     Cell Contents
                           -------------------------------
                         Total number of ions in cell =  255
                      Total number of species in cell =    2
                        Max number of any one species =  192
 
            xxxxxxxxxxxxxxxxxxxxxxxxxxxxxxxxxxxxxxxxxxxxxxxxxxxxxxxxxxxx
            x  Element    Atom        Fractional coordinates of atoms  x
            x            Number           u          v          w      x
            x----------------------------------------------------------x
            x  Al           1         0.569854   0.308369   0.562785   x 
            x  Al           2         0.817891   0.309075   0.561943   x 
            x  Al           3         0.569338   0.559919   0.562369   x 
            x  Al           4         0.817934   0.558662   0.562000   x 
            x  Al           5         0.574342   0.809781   0.557072   x 
            x  Al           6         0.819218   0.808722   0.560805   x 
            x  Al           7         0.570767   0.057722   0.562198   x 
            x  Al           8         0.819137   0.059212   0.561061   x 
            x  Al           9         0.568815   0.306855   0.809907   x 
            x  Al          10         0.817203   0.308956   0.811431   x 
            x  Al          11         0.568822   0.560899   0.809639   x 
            x  Al          12         0.817031   0.558905   0.811337   x 
            x  Al          13         0.576345   0.810970   0.811907   x 
            x  Al          14         0.818815   0.808781   0.811578   x 
            x  Al          15         0.572561   0.056765   0.807746   x 
            x  Al          16         0.818871   0.058913   0.811386   x 
            x  Al          17         0.571767   0.307315   0.060810   x 
            x  Al          18         0.817041   0.309550   0.060912   x 
            x  Al          19         0.570667   0.559869   0.060053   x 
            x  Al          20         0.816859   0.558262   0.061040   x 
            x  Al          21         0.574516   0.809253   0.065163   x 
            x  Al          22         0.819152   0.808365   0.062093   x 
            x  Al          23         0.576166   0.057867   0.067049   x 
            x  Al          24         0.819106   0.059200   0.061826   x 
            x  Al          25         0.571969   0.308514   0.312884   x 
            x  Al          26         0.817793   0.309465   0.312037   x 
            x  Al          27         0.571451   0.558777   0.313288   x 
            x  Al          28         0.817736   0.558157   0.311703   x 
            x  Al          29         0.571841   0.809203   0.311446   x 
            x  Al          30         0.819618   0.808286   0.311692   x 
            x  Al          31         0.571903   0.058533   0.310919   x 
            x  Al          32         0.819662   0.059606   0.312206   x 
            x  Al          33         0.328761   0.182021   0.433164   x 
            x  Al          34         0.056398   0.057625   0.306226   x 
            x  Al          35         0.193173   0.190196   0.303870   x 
            x  Al          36         0.321593   0.934577   0.437162   x 
            x  Al          37         0.192439   0.929506   0.302444   x 
            x  Al          38         0.325956   0.557121   0.559932   x 
            x  Al          39         0.073232   0.688503   0.428479   x 
            x  Al          40         0.198629   0.189934   0.072358   x 
            x  Al          41         0.066625   0.805629   0.064221   x 
            x  Al          42         0.324141   0.677904   0.192738   x 
            x  Al          43         0.193497   0.667376   0.062401   x 
            x  Al          44         0.331051   0.434666   0.188069   x 
            x  Al          45         0.318560   0.689546   0.429785   x 
            x  Al          46         0.190528   0.433656   0.056308   x 
            x  Al          47         0.063939   0.435899   0.189949   x 
            x  Al          48         0.317639   0.060406   0.810718   x 
            x  Al          49         0.439509   0.057395   0.943692   x 
            x  Al          50         0.186765   0.054401   0.683562   x 
            x  Al          51         0.068597   0.185244   0.940741   x 
            x  Al          52         0.433104   0.810269   0.936861   x 
            x  Al          53         0.071320   0.945598   0.941035   x 
            x  Al          54         0.201037   0.808039   0.931260   x 
            x  Al          55         0.325151   0.564402   0.806852   x 
            x  Al          56         0.329581   0.427935   0.936649   x 
            x  Al          57         0.184334   0.423623   0.810533   x 
            x  Al          58         0.187353   0.186501   0.555702   x 
            x  Al          59         0.433806   0.811541   0.686053   x 
            x  Al          60         0.191851   0.810679   0.685477   x 
            x  Al          61         0.189055   0.423859   0.552576   x 
            x  Al          62         0.198505   0.432921   0.325637   x 
            x  Al          63         0.180232   0.565701   0.681705   x 
            x  Ni           1         0.567284   0.433113   0.685945   x 
            x  Ni           2         0.693355   0.308374   0.686626   x 
            x  Ni           3         0.693203   0.434084   0.562403   x 
            x  Ni           4         0.817241   0.434251   0.686865   x 
            x  Ni           5         0.941976   0.309350   0.686705   x 
            x  Ni           6         0.942259   0.434107   0.561790   x 
            x  Ni           7         0.567512   0.689413   0.684759   x 
            x  Ni           8         0.691859   0.559953   0.686386   x 
            x  Ni           9         0.694623   0.683822   0.561047   x 
            x  Ni          10         0.818378   0.683591   0.686409   x 
            x  Ni          11         0.942218   0.558821   0.686678   x 
            x  Ni          12         0.942628   0.683437   0.561398   x 
            x  Ni          13         0.567603   0.930609   0.684936   x 
            x  Ni          14         0.695821   0.809491   0.685294   x 
            x  Ni          15         0.695423   0.934328   0.560456   x 
            x  Ni          16         0.819561   0.934005   0.685944   x 
            x  Ni          17         0.942616   0.808472   0.686324   x 
            x  Ni          18         0.943205   0.933725   0.561122   x 
            x  Ni          19         0.567809   0.182819   0.685820   x 
            x  Ni          20         0.694598   0.057887   0.685450   x 
            x  Ni          21         0.693670   0.183461   0.561571   x 
            x  Ni          22         0.818271   0.183809   0.686364   x 
            x  Ni          23         0.942897   0.059068   0.686337   x 
            x  Ni          24         0.942790   0.184450   0.561548   x 
            x  Ni          25         0.449021   0.433030   0.060749   x 
            x  Ni          26         0.691749   0.307936   0.935159   x 
            x  Ni          27         0.691833   0.433998   0.810853   x 
            x  Ni          28         0.816524   0.434006   0.935931   x 
            x  Ni          29         0.941772   0.309429   0.936462   x 
            x  Ni          30         0.941710   0.434156   0.811613   x 
            x  Ni          31         0.566799   0.688126   0.937147   x 
            x  Ni          32         0.691504   0.559625   0.935343   x 
            x  Ni          33         0.693769   0.684275   0.811281   x 
            x  Ni          34         0.818034   0.683503   0.936469   x 
            x  Ni          35         0.941798   0.558713   0.936515   x 
            x  Ni          36         0.942292   0.683574   0.811598   x 
            x  Ni          37         0.566817   0.933592   0.938426   x 
            x  Ni          38         0.695012   0.809753   0.937547   x 
            x  Ni          39         0.695832   0.934329   0.811411   x 
            x  Ni          40         0.819558   0.934026   0.936878   x 
            x  Ni          41         0.942626   0.808423   0.936805   x 
            x  Ni          42         0.942836   0.933688   0.811512   x 
            x  Ni          43         0.567828   0.179278   0.936617   x 
            x  Ni          44         0.693875   0.057725   0.936718   x 
            x  Ni          45         0.693669   0.182811   0.811050   x 
            x  Ni          46         0.818047   0.183884   0.936168   x 
            x  Ni          47         0.942974   0.059139   0.936701   x 
            x  Ni          48         0.942292   0.184276   0.811494   x 
            x  Ni          49         0.568434   0.433964   0.187271   x 
            x  Ni          50         0.693652   0.309332   0.186742   x 
            x  Ni          51         0.691728   0.433847   0.060455   x 
            x  Ni          52         0.817354   0.433961   0.186220   x 
            x  Ni          53         0.942303   0.309733   0.186415   x 
            x  Ni          54         0.941793   0.434170   0.061305   x 
            x  Ni          55         0.568998   0.683754   0.187392   x 
            x  Ni          56         0.692896   0.558381   0.186519   x 
            x  Ni          57         0.694416   0.683540   0.061671   x 
            x  Ni          58         0.818533   0.682772   0.186722   x 
            x  Ni          59         0.942168   0.558457   0.186416   x 
            x  Ni          60         0.942262   0.683157   0.061672   x 
            x  Ni          61         0.570078   0.932992   0.188265   x 
            x  Ni          62         0.696052   0.808385   0.187969   x 
            x  Ni          63         0.696428   0.933625   0.062716   x 
            x  Ni          64         0.820039   0.933793   0.187293   x 
            x  Ni          65         0.943036   0.808192   0.186742   x 
            x  Ni          66         0.943137   0.933772   0.061919   x 
            x  Ni          67         0.570379   0.183801   0.187537   x 
            x  Ni          68         0.696776   0.059005   0.188319   x 
            x  Ni          69         0.695191   0.183947   0.061554   x 
            x  Ni          70         0.818848   0.184915   0.186999   x 
            x  Ni          71         0.943159   0.059374   0.186721   x 
            x  Ni          72         0.942248   0.184621   0.061533   x 
            x  Ni          73         0.568601   0.433958   0.438525   x 
            x  Ni          74         0.693277   0.308683   0.437842   x 
            x  Ni          75         0.693393   0.433811   0.312340   x 
            x  Ni          76         0.817849   0.433808   0.437158   x 
            x  Ni          77         0.942644   0.309516   0.436657   x 
            x  Ni          78         0.942205   0.434063   0.311523   x 
            x  Ni          79         0.568934   0.684489   0.435970   x 
            x  Ni          80         0.693711   0.558707   0.437561   x 
            x  Ni          81         0.694566   0.683171   0.311790   x 
            x  Ni          82         0.818842   0.683118   0.436434   x 
            x  Ni          83         0.942468   0.558542   0.436606   x 
            x  Ni          84         0.942799   0.683018   0.311502   x 
            x  Ni          85         0.568994   0.934443   0.435140   x 
            x  Ni          86         0.695881   0.808960   0.435251   x 
            x  Ni          87         0.695870   0.934059   0.311957   x 
            x  Ni          88         0.819700   0.934262   0.436237   x 
            x  Ni          89         0.943070   0.808385   0.436298   x 
            x  Ni          90         0.943602   0.933838   0.311616   x 
            x  Ni          91         0.567687   0.182708   0.437284   x 
            x  Ni          92         0.694307   0.059167   0.436482   x 
            x  Ni          93         0.694459   0.184238   0.312598   x 
            x  Ni          94         0.818757   0.184427   0.436923   x 
            x  Ni          95         0.943568   0.059301   0.436442   x 
            x  Ni          96         0.943083   0.184836   0.311647   x 
            x  Ni          97         0.068418   0.429591   0.681557   x 
            x  Ni          98         0.190993   0.305911   0.682807   x 
            x  Ni          99         0.063036   0.304506   0.556789   x 
            x  Ni         100         0.310577   0.437031   0.684991   x 
            x  Ni         101         0.442013   0.307176   0.686203   x 
            x  Ni         102         0.314764   0.682997   0.682217   x 
            x  Ni         103         0.319565   0.308454   0.558714   x 
            x  Ni         104         0.062624   0.561816   0.554120   x 
            x  Ni         105         0.063135   0.689104   0.684629   x 
            x  Ni         106         0.316465   0.809060   0.808647   x 
            x  Ni         107         0.445279   0.561403   0.685153   x 
            x  Ni         108         0.443909   0.687494   0.559921   x 
            x  Ni         109         0.191894   0.686089   0.557624   x 
            x  Ni         110         0.066440   0.934202   0.684360   x 
            x  Ni         111         0.317300   0.809890   0.559218   x 
            x  Ni         112         0.190724   0.935478   0.556270   x 
            x  Ni         113         0.314318   0.936679   0.683779   x 
            x  Ni         114         0.445221   0.689081   0.810326   x 
            x  Ni         115         0.444167   0.933704   0.561116   x 
            x  Ni         116         0.065499   0.180427   0.682615   x 
            x  Ni         117         0.315903   0.060884   0.558561   x 
            x  Ni         118         0.067183   0.058157   0.554520   x 
            x  Ni         119         0.314405   0.180929   0.683519   x 
            x  Ni         120         0.442477   0.056650   0.686405   x 
            x  Ni         121         0.444163   0.182529   0.562310   x 
            x  Ni         122         0.193342   0.060587   0.427046   x 
            x  Ni         123         0.064560   0.430640   0.936806   x 
            x  Ni         124         0.193473   0.307199   0.938270   x 
            x  Ni         125         0.062644   0.303118   0.810563   x 
            x  Ni         126         0.447537   0.304809   0.935132   x 
            x  Ni         127         0.442817   0.433453   0.808196   x 
            x  Ni         128         0.319034   0.307690   0.809290   x 
            x  Ni         129         0.070851   0.683469   0.939198   x 
            x  Ni         130         0.195813   0.551951   0.929960   x 
            x  Ni         131         0.190182   0.682436   0.809710   x 
            x  Ni         132         0.064462   0.557848   0.810579   x 
            x  Ni         133         0.316823   0.680141   0.936619   x 
            x  Ni         134         0.566750   0.433469   0.934086   x 
            x  Ni         135         0.445679   0.560631   0.933843   x 
            x  Ni         136         0.067561   0.060789   0.812295   x 
            x  Ni         137         0.070144   0.814100   0.815417   x 
            x  Ni         138         0.315407   0.936386   0.938885   x 
            x  Ni         139         0.443101   0.934487   0.812782   x 
            x  Ni         140         0.191531   0.937510   0.812061   x 
            x  Ni         141         0.195572   0.064498   0.940185   x 
            x  Ni         142         0.191248   0.184348   0.809750   x 
            x  Ni         143         0.317972   0.185232   0.938595   x 
            x  Ni         144         0.442848   0.179823   0.811376   x 
            x  Ni         145         0.065179   0.310048   0.064684   x 
            x  Ni         146         0.449156   0.308328   0.187189   x 
            x  Ni         147         0.322666   0.311987   0.063214   x 
            x  Ni         148         0.064895   0.678696   0.186882   x 
            x  Ni         149         0.063646   0.555773   0.062012   x 
            x  Ni         150         0.195224   0.548687   0.189775   x 
            x  Ni         151         0.448700   0.559087   0.187339   x 
            x  Ni         152         0.444168   0.684041   0.061691   x 
            x  Ni         153         0.322397   0.553804   0.061255   x 
            x  Ni         154         0.065007   0.932035   0.184388   x 
            x  Ni         155         0.192971   0.801622   0.182410   x 
            x  Ni         156         0.192070   0.932637   0.063759   x 
            x  Ni         157         0.318220   0.932101   0.185888   x 
            x  Ni         158         0.445186   0.808099   0.185046   x 
            x  Ni         159         0.443651   0.932143   0.063045   x 
            x  Ni         160         0.316166   0.803295   0.063409   x 
            x  Ni         161         0.065740   0.186864   0.186224   x 
            x  Ni         162         0.191661   0.059643   0.189488   x 
            x  Ni         163         0.068926   0.062860   0.064962   x 
            x  Ni         164         0.320897   0.187575   0.189948   x 
            x  Ni         165         0.446031   0.058038   0.185089   x 
            x  Ni         166         0.444864   0.183296   0.063491   x 
            x  Ni         167         0.318096   0.060385   0.066181   x 
            x  Ni         168         0.065688   0.431818   0.432963   x 
            x  Ni         169         0.194789   0.303270   0.433063   x 
            x  Ni         170         0.195298   0.320563   0.189020   x 
            x  Ni         171         0.064207   0.309798   0.308024   x 
            x  Ni         172         0.322856   0.554411   0.317181   x 
            x  Ni         173         0.446749   0.308920   0.437777   x 
            x  Ni         174         0.446824   0.433484   0.315333   x 
            x  Ni         175         0.323994   0.312248   0.314611   x 
            x  Ni         176         0.067242   0.810853   0.556445   x 
            x  Ni         177         0.195658   0.558842   0.440577   x 
            x  Ni         178         0.194939   0.680800   0.308230   x 
            x  Ni         179         0.064970   0.558108   0.312865   x 
            x  Ni         180         0.441588   0.432340   0.561197   x 
            x  Ni         181         0.446479   0.684492   0.312239   x 
            x  Ni         182         0.445129   0.559618   0.438592   x 
            x  Ni         183         0.068172   0.932442   0.428731   x 
            x  Ni         184         0.194680   0.811424   0.431780   x 
            x  Ni         185         0.065333   0.807911   0.305866   x 
            x  Ni         186         0.444974   0.810659   0.435829   x 
            x  Ni         187         0.444757   0.934142   0.309958   x 
            x  Ni         188         0.320617   0.810172   0.308544   x 
            x  Ni         189         0.066621   0.182711   0.428692   x 
            x  Ni         190         0.320429   0.057690   0.309449   x 
            x  Ni         191         0.445958   0.057041   0.436426   x 
            x  Ni         192         0.446745   0.182735   0.310315   x 
            xxxxxxxxxxxxxxxxxxxxxxxxxxxxxxxxxxxxxxxxxxxxxxxxxxxxxxxxxxxx
 
 
                         No user defined ionic velocities
 
                           -------------------------------
                                   Details of Species
                           -------------------------------
 
                               Mass of species in AMU
                                    Al   26.9815400
                                    Ni   58.6934000
 
                          Electric Quadrupole Moment (Barn)
                                    Al    0.1466000 Isotope 27
                                    Ni    0.1620000 Isotope 61
 
                          Files used for pseudopotentials:
                                    Al 3|2.2|2.2|1.4|4|5|5|30:31:32U2U2
                                    Ni 3|2.4|2.4|1.0|8|9|10|40:41:32U2U2(qc=5.5)
 
                           -------------------------------
                              k-Points For BZ Sampling
                           -------------------------------
                       MP grid size for SCF calculation is  1  1  1
                            with an offset of   0.000  0.000  0.000
                       Number of kpoints used =             1
 
                           -------------------------------
                               Symmetry and Constraints
                           -------------------------------
 
                      Maximum deviation from symmetry =  0.00000         ANG
 
                      Number of symmetry operations   =           1
                      Number of ionic constraints     =           3
                      Point group of crystal =     1: C1, 1, 1
                      Space group of crystal =     1: P1, P 1
 
             Set iprint > 1 for details on symmetry rotations/translations
 
                         Centre of mass is constrained
             Set iprint > 1 for details of linear ionic constraints
 
                         Number of cell constraints= 6
                         Cell constraints are:  0 0 0 0 0 0
 
                         External pressure/stress (GPa)
                          0.00000   0.00000   0.00000
                                    0.00000   0.00000
                                              0.00000
  
+---------------- MEMORY AND SCRATCH DISK ESTIMATES PER PROCESS --------------+
|                                                     Memory          Disk    |
| Baseline code, static data and system overhead      622.0 MB         0.0 MB |
| BLAS internal memory storage                          0.0 MB         0.0 MB |
| Model and support data                              741.5 MB         0.0 MB |
| Electronic energy minimisation requirements         236.0 MB         0.0 MB |
| Force calculation requirements                        7.9 MB         0.0 MB |
|                                               ----------------------------- |
| Approx. total storage required per process         1599.5 MB         0.0 MB |
|                                                                             |
| Requirements will fluctuate during execution and may exceed these estimates |
+-----------------------------------------------------------------------------+
Calculating total energy with cut-off of  900.000 eV.
------------------------------------------------------------------------ <-- SCF
SCF loop      Energy           Fermi           Energy gain       Timer   <-- SCF
                               energy          per atom          (sec)   <-- SCF
------------------------------------------------------------------------ <-- SCF
Initial  -2.19128598E+005  0.00000000E+000                        20.46  <-- SCF
      1  -2.63688425E+005  7.10366763E+000   1.74744420E+002     106.55  <-- SCF
      2  -2.70650215E+005  3.64726204E+000   2.73011398E+001     188.35  <-- SCF
      3  -2.71369879E+005  3.53692673E+000   2.82221031E+000     273.40  <-- SCF
      4  -2.71426885E+005  3.64847179E+000   2.23554616E-001     350.12  <-- SCF
      5  -2.71708537E+005  6.62048015E+000   1.10451472E+000     445.74  <-- SCF
      6  -2.71508598E+005  5.52616512E+000  -7.84072393E-001     554.80  <-- SCF
      7  -2.71402379E+005  4.53168037E+000  -4.16546923E-001     654.79  <-- SCF
      8  -2.71387023E+005  4.41177403E+000  -6.02186433E-002     759.32  <-- SCF
      9  -2.71399527E+005  4.49003311E+000   4.90362603E-002     856.58  <-- SCF
     10  -2.71395136E+005  4.43848929E+000  -1.72204248E-002     956.30  <-- SCF
     11  -2.72214868E+005  6.10344836E+000   3.21463509E+000    1058.48  <-- SCF
     12  -2.72226443E+005  6.06855546E+000   4.53906759E-002    1143.27  <-- SCF
     13  -2.71472318E+005  4.77409933E+000  -2.95735162E+000    1272.14  <-- SCF
     14  -2.71537853E+005  4.75989353E+000   2.56999993E-001    1356.07  <-- SCF
     15  -2.71419711E+005  4.28848618E+000  -4.63302317E-001    1466.24  <-- SCF
     16  -2.71393475E+005  4.22660589E+000  -1.02885814E-001    1560.93  <-- SCF
     17  -2.71390023E+005  4.28226190E+000  -1.35361091E-002    1656.58  <-- SCF
     18  -2.71388364E+005  4.34025106E+000  -6.50486706E-003    1750.07  <-- SCF
     19  -2.71386868E+005  4.36935799E+000  -5.86982724E-003    1843.77  <-- SCF
     20  -2.71386170E+005  4.36220170E+000  -2.73409367E-003    1938.37  <-- SCF
     21  -2.71385927E+005  4.35172936E+000  -9.55442112E-004    2032.17  <-- SCF
     22  -2.71385831E+005  4.34825960E+000  -3.74927143E-004    2127.95  <-- SCF
     23  -2.71385760E+005  4.35461539E+000  -2.80164465E-004    2222.05  <-- SCF
     24  -2.71385686E+005  4.36051063E+000  -2.89656066E-004    2314.79  <-- SCF
     25  -2.71385645E+005  4.36367521E+000  -1.59188956E-004    2408.78  <-- SCF
     26  -2.71385529E+005  4.36954934E+000  -4.58114733E-004    2504.60  <-- SCF
     27  -2.71385498E+005  4.37199517E+000  -1.18730979E-004    2600.27  <-- SCF
     28  -2.71385492E+005  4.37333531E+000  -2.36880762E-005    2696.18  <-- SCF
     29  -2.71385479E+005  4.37589735E+000  -5.10588486E-005    2792.10  <-- SCF
     30  -2.71385479E+005  4.37613514E+000  -2.55708438E-006    2873.46  <-- SCF
     31  -2.71385479E+005  4.37679294E+000   8.22967225E-007    2950.92  <-- SCF
     32  -2.71385478E+005  4.37728084E+000  -4.08636979E-006    3021.12  <-- SCF
     33  -2.71385478E+005  4.37734749E+000  -1.05006320E-007    3084.50  <-- SCF
     34  -2.71385478E+005  4.37730654E+000   2.40494195E-007    3146.64  <-- SCF
------------------------------------------------------------------------ <-- SCF
 
Integrated Spin Density     =    0.146729     hbar/2                        
Integrated |Spin Density|   =    0.229093     hbar/2                        
 
Final energy, E             =  -271380.8889142     eV
Final free energy (E-TS)    =  -271385.4777315     eV
(energies not corrected for finite basis set)
 
NB est. 0K energy (E-0.5TS)      =  -271383.1833229     eV
 

Writing analysis data to castep.castep_bin

Writing model to castep.check
 
+---------------- MEMORY AND SCRATCH DISK ESTIMATES PER PROCESS --------------+
|                                                     Memory          Disk    |
| Model and support data                              750.6 MB         0.0 MB |
| Electronic energy minimisation requirements         236.0 MB         0.0 MB |
| Geometry minimisation requirements                  309.4 MB         0.0 MB |
|                                               ----------------------------- |
| Approx. total storage required per process         1296.0 MB         0.0 MB |
|                                                                             |
| Requirements will fluctuate during execution and may exceed these estimates |
+-----------------------------------------------------------------------------+
 
 
 ************************************** Forces **************************************
 *                                                                                  *
 *                           Cartesian components (eV/A)                            *
 * -------------------------------------------------------------------------------- *
 *                         x                    y                    z              *
 *                                                                                  *
 * Al              1     -0.07044             -0.03023             -0.01909         *
 * Al              2      0.03178             -0.03598             -0.01278         *
 * Al              3     -0.02708             -0.03530             -0.02498         *
 * Al              4      0.05893             -0.00179              0.00705         *
 * Al              5     -0.00653              0.05251             -0.10581         *
 * Al              6      0.09532              0.02860              0.00600         *
 * Al              7     -0.14856              0.03813             -0.02507         *
 * Al              8      0.07286              0.00517             -0.02283         *
 * Al              9     -0.03615              0.00468              0.01444         *
 * Al             10      0.03843              0.01315             -0.01343         *
 * Al             11     -0.05292             -0.03441              0.01270         *
 * Al             12      0.07999             -0.00198             -0.01078         *
 * Al             13      0.19825             -0.01088             -0.01420         *
 * Al             14      0.04895             -0.03152             -0.03370         *
 * Al             15     -0.00088              0.02295             -0.12789         *
 * Al             16      0.07627              0.01295             -0.02596         *
 * Al             17     -0.16076             -0.02478              0.00059         *
 * Al             18      0.04369              0.02193              0.00116         *
 * Al             19     -0.11870             -0.02650              0.05731         *
 * Al             20      0.08071              0.01258              0.00656         *
 * Al             21     -0.01698              0.00300              0.10431         *
 * Al             22      0.10169             -0.01426             -0.00194         *
 * Al             23      0.02546              0.02018              0.12776         *
 * Al             24      0.02229             -0.00281             -0.01447         *
 * Al             25     -0.14356             -0.02079             -0.00112         *
 * Al             26     -0.01457             -0.01642              0.00847         *
 * Al             27     -0.11914              0.00313             -0.05045         *
 * Al             28      0.06980              0.03018             -0.01889         *
 * Al             29     -0.20156              0.00650              0.00966         *
 * Al             30      0.04830             -0.00932              0.01258         *
 * Al             31     -0.17465              0.01340              0.01609         *
 * Al             32      0.07836             -0.01470              0.03180         *
 * Al             33      0.10710              0.19492              0.12836         *
 * Al             34      0.32159              0.19359              0.28675         *
 * Al             35     -0.03325             -0.01859             -0.06862         *
 * Al             36      0.15636              0.05320              0.22355         *
 * Al             37     -0.04784             -0.28195             -0.04271         *
 * Al             38      0.06966              0.04888             -0.07181         *
 * Al             39     -0.50123             -0.28833              0.54851         *
 * Al             40      0.12326             -0.17945             -0.02391         *
 * Al             41     -0.73747             -0.01583              0.57910         *
 * Al             42      0.15109              0.14260              0.03051         *
 * Al             43     -0.02603             -0.14072             -0.11042         *
 * Al             44      0.04426             -0.12668             -0.00308         *
 * Al             45      0.04349             -0.02132              0.11789         *
 * Al             46     -0.16370              0.06922             -0.09230         *
 * Al             47     -0.62393             -0.09971             -0.06474         *
 * Al             48     -0.22790             -0.05684             -0.03968         *
 * Al             49      0.02273              0.17559              0.15299         *
 * Al             50     -0.32085              0.03522             -0.05922         *
 * Al             51     -0.52368             -0.09369             -0.68418         *
 * Al             52     -0.07284             -0.09472              0.04490         *
 * Al             53     -0.60118             -0.00870             -0.67496         *
 * Al             54      0.11373             -0.08242             -0.18978         *
 * Al             55      0.04895              0.37696              0.09953         *
 * Al             56      0.28910             -0.08406             -0.01912         *
 * Al             57     -0.27493             -0.17612             -0.08549         *
 * Al             58     -0.07486              0.03892              0.13058         *
 * Al             59      0.05296             -0.07888             -0.16722         *
 * Al             60     -0.19226             -0.01803             -0.11722         *
 * Al             61     -0.13587             -0.12108              0.01000         *
 * Al             62      0.09596              0.14171              0.19588         *
 * Al             63     -0.34671              0.18032              0.02350         *
 * Ni              1     -0.00430             -0.01482             -0.05073         *
 * Ni              2      0.00995             -0.01369              0.00606         *
 * Ni              3      0.04653             -0.00490             -0.02914         *
 * Ni              4      0.09604             -0.02085             -0.02070         *
 * Ni              5      0.10948             -0.10068             -0.06209         *
 * Ni              6      0.06189              0.01543             -0.11780         *
 * Ni              7      0.08605              0.04491              0.10348         *
 * Ni              8      0.09887             -0.03119              0.00168         *
 * Ni              9     -0.03476              0.02252              0.00294         *
 * Ni             10      0.01881              0.00636              0.03106         *
 * Ni             11      0.28684             -0.05317             -0.08045         *
 * Ni             12      0.08050              0.16632             -0.08373         *
 * Ni             13      0.12803             -0.07964              0.15758         *
 * Ni             14     -0.02259             -0.00340              0.00302         *
 * Ni             15     -0.07152             -0.01960              0.02314         *
 * Ni             16     -0.02922              0.02615             -0.01650         *
 * Ni             17      0.10605              0.18331              0.01149         *
 * Ni             18      0.15394             -0.01104             -0.15351         *
 * Ni             19      0.00377             -0.01225              0.09519         *
 * Ni             20      0.06725              0.01834             -0.00491         *
 * Ni             21     -0.00114             -0.00434             -0.01653         *
 * Ni             22      0.03329              0.00396             -0.02086         *
 * Ni             23      0.21337             -0.02802             -0.04270         *
 * Ni             24      0.01213             -0.19774             -0.16004         *
 * Ni             25      0.13277              0.00642             -0.03643         *
 * Ni             26      0.10579              0.04897             -0.00132         *
 * Ni             27      0.01718             -0.00110             -0.00076         *
 * Ni             28      0.02450              0.01666             -0.04033         *
 * Ni             29      0.11255              0.03632              0.05023         *
 * Ni             30      0.17966             -0.10872             -0.09631         *
 * Ni             31      0.18476              0.15671             -0.09262         *
 * Ni             32      0.06830             -0.04259              0.01976         *
 * Ni             33     -0.03109              0.04279              0.00427         *
 * Ni             34     -0.01936             -0.06338             -0.02643         *
 * Ni             35      0.16855             -0.01485              0.04107         *
 * Ni             36      0.24991              0.13369              0.07458         *
 * Ni             37      0.22705              0.02255             -0.05381         *
 * Ni             38      0.05930             -0.01074             -0.00054         *
 * Ni             39     -0.09059             -0.02339              0.01561         *
 * Ni             40     -0.00736             -0.02595             -0.02375         *
 * Ni             41      0.39382              0.03684             -0.03410         *
 * Ni             42      0.27102              0.07886             -0.04911         *
 * Ni             43      0.09910             -0.14322              0.00191         *
 * Ni             44      0.10616              0.00779              0.00015         *
 * Ni             45     -0.02955             -0.01098              0.02210         *
 * Ni             46      0.02735              0.06988             -0.00607         *
 * Ni             47     -0.05301              0.13542              0.10872         *
 * Ni             48     -0.03299             -0.18864             -0.09226         *
 * Ni             49      0.16572             -0.05556              0.05008         *
 * Ni             50      0.03364             -0.01897             -0.00173         *
 * Ni             51      0.03015              0.00208              0.02805         *
 * Ni             52      0.06276             -0.00664             -0.00107         *
 * Ni             53     -0.06906             -0.19591             -0.03696         *
 * Ni             54     -0.12976             -0.07459             -0.13339         *
 * Ni             55      0.10952              0.05379             -0.12568         *
 * Ni             56      0.02896              0.02882             -0.00051         *
 * Ni             57     -0.06108              0.01190              0.00505         *
 * Ni             58     -0.03671              0.01950             -0.02590         *
 * Ni             59     -0.11860              0.13094              0.02728         *
 * Ni             60      0.05294             -0.14180             -0.04599         *
 * Ni             61      0.08148              0.04056             -0.15916         *
 * Ni             62     -0.00404             -0.01251              0.00582         *
 * Ni             63     -0.09731              0.00167             -0.02948         *
 * Ni             64     -0.03064              0.00908              0.01535         *
 * Ni             65     -0.05749             -0.09092              0.06083         *
 * Ni             66      0.13595              0.04650             -0.04095         *
 * Ni             67      0.08353             -0.04953             -0.11018         *
 * Ni             68      0.00320              0.00337             -0.00600         *
 * Ni             69     -0.03609             -0.02849             -0.01207         *
 * Ni             70     -0.00145             -0.03121              0.00130         *
 * Ni             71     -0.22543              0.04920             -0.48636         *
 * Ni             72     -0.04511             -0.02796              0.16691         *
 * Ni             73     -0.01495              0.00828              0.05278         *
 * Ni             74      0.04606              0.01115              0.00636         *
 * Ni             75      0.03868              0.00682             -0.00635         *
 * Ni             76      0.00013             -0.03074              0.04508         *
 * Ni             77      0.03649             -0.08313             -0.16267         *
 * Ni             78     -0.21396              0.01704              0.21347         *
 * Ni             79      0.08082             -0.01713              0.14671         *
 * Ni             80      0.02368              0.01712             -0.01958         *
 * Ni             81     -0.01070              0.01070             -0.00863         *
 * Ni             82     -0.00008             -0.00630             -0.00524         *
 * Ni             83     -0.08500             -0.04708             -0.19780         *
 * Ni             84     -0.07722             -0.04407             -0.12068         *
 * Ni             85      0.12904             -0.01423              0.05878         *
 * Ni             86     -0.00150             -0.00581              0.00191         *
 * Ni             87     -0.01731             -0.01591             -0.00942         *
 * Ni             88     -0.06468              0.03292              0.01970         *
 * Ni             89      0.08142              0.14632             -0.13783         *
 * Ni             90     -0.26805             -0.36417             -0.14616         *
 * Ni             91      0.13797              0.04606              0.00660         *
 * Ni             92      0.00983             -0.02525              0.01041         *
 * Ni             93     -0.00154             -0.00031             -0.02768         *
 * Ni             94      0.01527              0.01594              0.01700         *
 * Ni             95     -0.10988             -0.10089              0.10027         *
 * Ni             96     -0.32405              0.28947             -0.11688         *
 * Ni             97     -0.10003              0.37882              0.14333         *
 * Ni             98      0.09330             -0.08363              0.14626         *
 * Ni             99      0.12610              0.29867              0.18236         *
 * Ni            100     -0.01388              0.13132             -0.06477         *
 * Ni            101     -0.24826              0.07080             -0.06978         *
 * Ni            102      0.18142             -0.17552              0.15778         *
 * Ni            103      0.10699             -0.12636              0.06886         *
 * Ni            104      0.35760             -0.30150              0.43445         *
 * Ni            105      0.12255             -0.19178              0.05564         *
 * Ni            106     -0.23051              0.03068              0.06751         *
 * Ni            107     -0.03966             -0.06625             -0.07406         *
 * Ni            108     -0.11355              0.00797             -0.00625         *
 * Ni            109      0.11871             -0.00587              0.13093         *
 * Ni            110     -0.18390             -0.13467              0.14478         *
 * Ni            111     -0.24706              0.05077             -0.10377         *
 * Ni            112      0.02496             -0.12818             -0.04273         *
 * Ni            113      0.25208              0.14517              0.02107         *
 * Ni            114      0.00665              0.10890             -0.06127         *
 * Ni            115     -0.07148              0.00725              0.14941         *
 * Ni            116      0.11867              0.25724              0.18424         *
 * Ni            117      0.06923              0.02024              0.12691         *
 * Ni            118      0.11997              0.00847              0.13280         *
 * Ni            119      0.15992              0.06129              0.04745         *
 * Ni            120     -0.03235              0.03472             -0.27981         *
 * Ni            121     -0.12191             -0.05905              0.23817         *
 * Ni            122     -0.17786             -0.05410              0.14658         *
 * Ni            123     -0.00721              0.18174             -0.17051         *
 * Ni            124      0.08368              0.05396             -0.04674         *
 * Ni            125      0.22143              0.30749             -0.09784         *
 * Ni            126     -0.23061             -0.11435              0.07260         *
 * Ni            127     -0.09242             -0.04696             -0.13552         *
 * Ni            128     -0.20360             -0.13656              0.03237         *
 * Ni            129      0.03543              0.15254             -0.18779         *
 * Ni            130     -0.02254             -0.25821             -0.13189         *
 * Ni            131     -0.01034             -0.04778              0.00568         *
 * Ni            132      0.19278             -0.05832              0.04038         *
 * Ni            133      0.13617             -0.01933             -0.01013         *
 * Ni            134      0.11788              0.01469             -0.06043         *
 * Ni            135     -0.19586              0.05020              0.26538         *
 * Ni            136     -0.18627              0.04827             -0.15011         *
 * Ni            137     -0.36826             -0.34963             -0.02967         *
 * Ni            138      0.14716              0.13504              0.03135         *
 * Ni            139     -0.15814             -0.00659             -0.07345         *
 * Ni            140      0.16566             -0.06813             -0.02943         *
 * Ni            141     -0.13276              0.06510              0.18487         *
 * Ni            142      0.15332             -0.00099             -0.11135         *
 * Ni            143      0.31479              0.13184             -0.22486         *
 * Ni            144     -0.08557             -0.02693              0.05209         *
 * Ni            145      0.16023              0.01764             -0.18554         *
 * Ni            146     -0.33952             -0.12990              0.06972         *
 * Ni            147      0.02201             -0.03523              0.09067         *
 * Ni            148      0.29939              0.10136             -0.05601         *
 * Ni            149      0.23341             -0.03816             -0.15185         *
 * Ni            150     -0.05957             -0.03880              0.15758         *
 * Ni            151     -0.18513             -0.04360              0.02465         *
 * Ni            152     -0.01557             -0.01512             -0.16662         *
 * Ni            153      0.04246              0.16378             -0.07827         *
 * Ni            154      0.19840              0.24235              0.03773         *
 * Ni            155     -0.02044             -0.07462              0.06362         *
 * Ni            156     -0.06676             -0.13990             -0.28064         *
 * Ni            157      0.26408              0.06548             -0.25629         *
 * Ni            158     -0.19467              0.14358              0.22574         *
 * Ni            159     -0.13310             -0.02696              0.08691         *
 * Ni            160     -0.19320              0.23664              0.26901         *
 * Ni            161     -0.05354              0.04755              0.06781         *
 * Ni            162     -0.00719             -0.12256              0.10058         *
 * Ni            163     -0.00701              0.06704              0.21326         *
 * Ni            164      0.29753             -0.13374             -0.10032         *
 * Ni            165     -0.32054              0.03675              0.17200         *
 * Ni            166     -0.09146             -0.01849             -0.03501         *
 * Ni            167     -0.07859             -0.12577              0.12740         *
 * Ni            168     -0.03082              0.15495              0.26399         *
 * Ni            169     -0.17559             -0.23317             -0.03585         *
 * Ni            170      0.03634              0.20717             -0.02526         *
 * Ni            171      0.27775              0.05946              0.34813         *
 * Ni            172     -0.04995             -0.06963             -0.10083         *
 * Ni            173     -0.19328              0.25058             -0.08371         *
 * Ni            174      0.03173              0.04433              0.24588         *
 * Ni            175      0.10395             -0.07143             -0.08801         *
 * Ni            176     -0.03432              0.03134              0.23494         *
 * Ni            177      0.05041             -0.01689             -0.05493         *
 * Ni            178     -0.10069              0.04726             -0.07567         *
 * Ni            179      0.35652             -0.07714             -0.04645         *
 * Ni            180      0.12964             -0.11047              0.04054         *
 * Ni            181      0.14983             -0.03255              0.08153         *
 * Ni            182     -0.16290             -0.12772             -0.28258         *
 * Ni            183      0.04889              0.12088              0.37321         *
 * Ni            184     -0.14393              0.16126              0.06142         *
 * Ni            185      0.28275             -0.10517              0.03240         *
 * Ni            186     -0.01381             -0.10531             -0.12504         *
 * Ni            187     -0.07758             -0.08918             -0.17086         *
 * Ni            188      0.08935              0.14891             -0.08634         *
 * Ni            189     -0.13319              0.08164              0.29583         *
 * Ni            190      0.12096             -0.01263             -0.19303         *
 * Ni            191     -0.04855              0.01143             -0.11700         *
 * Ni            192      0.06990              0.05753             -0.16621         *
 *                                                                                  *
 ************************************************************************************
 LBFGS: finished iteration     0 with enthalpy= -2.71385478E+005 eV
  
 +-----------+-----------------+-----------------+------------+-----+ <-- LBFGS
 | Parameter |      value      |    tolerance    |    units   | OK? | <-- LBFGS
 +-----------+-----------------+-----------------+------------+-----+ <-- LBFGS
 |  dE/ion   |   0.000000E+000 |   2.000000E-005 |         eV | No  | <-- LBFGS
 |  |F|max   |   9.378022E-001 |   5.000000E-002 |       eV/A | No  | <-- LBFGS
 |  |dR|max  |   0.000000E+000 |   1.000000E-003 |          A | No  | <-- LBFGS
 +-----------+-----------------+-----------------+------------+-----+ <-- LBFGS
  

================================================================================
 Starting LBFGS iteration          1 ...
================================================================================
  
 +------------+-------------+-------------+-----------------+ <-- min LBFGS
 |    Step    |   lambda    |   F.delta'  |    enthalpy     | <-- min LBFGS
 +------------+-------------+-------------+-----------------+ <-- min LBFGS
 |  previous  |    0.000000 |    2.038761 |  -271385.477731 | <-- min LBFGS
 +------------+-------------+-------------+-----------------+ <-- min LBFGS
  

--------------------------------------------------------------------------------
 LBFGS: starting iteration         1 with trial guess (lambda=  1.000000)
--------------------------------------------------------------------------------
 
                           -------------------------------
                                     Cell Contents
                           -------------------------------
 
            xxxxxxxxxxxxxxxxxxxxxxxxxxxxxxxxxxxxxxxxxxxxxxxxxxxxxxxxxxxxxxxxx
            x  Element         Atom        Fractional coordinates of atoms  x
            x                 Number           u          v          w      x
            x---------------------------------------------------------------x
            x  Al                1         0.569845   0.308365   0.562783   x
            x  Al                2         0.817895   0.309071   0.561942   x
            x  Al                3         0.569334   0.559915   0.562365   x
            x  Al                4         0.817942   0.558661   0.562001   x
            x  Al                5         0.574341   0.809788   0.557058   x
            x  Al                6         0.819230   0.808726   0.560806   x
            x  Al                7         0.570748   0.057727   0.562195   x
            x  Al                8         0.819147   0.059213   0.561058   x
            x  Al                9         0.568810   0.306855   0.809909   x
            x  Al               10         0.817208   0.308958   0.811430   x
            x  Al               11         0.568815   0.560895   0.809640   x
            x  Al               12         0.817041   0.558905   0.811336   x
            x  Al               13         0.576372   0.810969   0.811905   x
            x  Al               14         0.818821   0.808776   0.811573   x
            x  Al               15         0.572561   0.056768   0.807729   x
            x  Al               16         0.818881   0.058915   0.811383   x
            x  Al               17         0.571746   0.307312   0.060810   x
            x  Al               18         0.817047   0.309553   0.060912   x
            x  Al               19         0.570651   0.559866   0.060061   x
            x  Al               20         0.816870   0.558264   0.061041   x
            x  Al               21         0.574513   0.809253   0.065177   x
            x  Al               22         0.819166   0.808363   0.062092   x
            x  Al               23         0.576169   0.057870   0.067066   x
            x  Al               24         0.819109   0.059200   0.061824   x
            x  Al               25         0.571950   0.308512   0.312884   x
            x  Al               26         0.817791   0.309463   0.312038   x
            x  Al               27         0.571435   0.558778   0.313281   x
            x  Al               28         0.817745   0.558161   0.311701   x
            x  Al               29         0.571815   0.809204   0.311447   x
            x  Al               30         0.819624   0.808285   0.311694   x
            x  Al               31         0.571879   0.058535   0.310921   x
            x  Al               32         0.819673   0.059604   0.312210   x
            x  Al               33         0.328776   0.182047   0.433181   x
            x  Al               34         0.056441   0.057651   0.306264   x
            x  Al               35         0.193168   0.190193   0.303861   x
            x  Al               36         0.321614   0.934584   0.437191   x
            x  Al               37         0.192432   0.929469   0.302438   x
            x  Al               38         0.325965   0.557127   0.559922   x
            x  Al               39         0.073165   0.688465   0.428552   x
            x  Al               40         0.198645   0.189910   0.072355   x
            x  Al               41         0.066527   0.805627   0.064298   x
            x  Al               42         0.324161   0.677923   0.192742   x
            x  Al               43         0.193494   0.667357   0.062387   x
            x  Al               44         0.331056   0.434649   0.188069   x
            x  Al               45         0.318566   0.689543   0.429801   x
            x  Al               46         0.190506   0.433666   0.056295   x
            x  Al               47         0.063856   0.435886   0.189940   x
            x  Al               48         0.317609   0.060398   0.810713   x
            x  Al               49         0.439512   0.057418   0.943713   x
            x  Al               50         0.186723   0.054406   0.683554   x
            x  Al               51         0.068527   0.185232   0.940650   x
            x  Al               52         0.433094   0.810256   0.936867   x
            x  Al               53         0.071240   0.945597   0.940946   x
            x  Al               54         0.201052   0.808028   0.931235   x
            x  Al               55         0.325157   0.564453   0.806865   x
            x  Al               56         0.329620   0.427923   0.936646   x
            x  Al               57         0.184297   0.423600   0.810522   x
            x  Al               58         0.187344   0.186506   0.555720   x
            x  Al               59         0.433813   0.811530   0.686031   x
            x  Al               60         0.191825   0.810677   0.685462   x
            x  Al               61         0.189037   0.423843   0.552577   x
            x  Al               62         0.198517   0.432940   0.325663   x
            x  Al               63         0.180186   0.565725   0.681708   x
            x  Ni                1         0.567283   0.433111   0.685938   x
            x  Ni                2         0.693356   0.308372   0.686627   x
            x  Ni                3         0.693210   0.434083   0.562399   x
            x  Ni                4         0.817254   0.434249   0.686862   x
            x  Ni                5         0.941991   0.309337   0.686697   x
            x  Ni                6         0.942268   0.434109   0.561775   x
            x  Ni                7         0.567523   0.689419   0.684772   x
            x  Ni                8         0.691872   0.559949   0.686386   x
            x  Ni                9         0.694618   0.683825   0.561047   x
            x  Ni               10         0.818380   0.683592   0.686413   x
            x  Ni               11         0.942256   0.558814   0.686667   x
            x  Ni               12         0.942638   0.683459   0.561387   x
            x  Ni               13         0.567620   0.930598   0.684957   x
            x  Ni               14         0.695818   0.809490   0.685294   x
            x  Ni               15         0.695413   0.934325   0.560459   x
            x  Ni               16         0.819557   0.934009   0.685942   x
            x  Ni               17         0.942630   0.808496   0.686326   x
            x  Ni               18         0.943226   0.933723   0.561101   x
            x  Ni               19         0.567810   0.182818   0.685832   x
            x  Ni               20         0.694607   0.057889   0.685450   x
            x  Ni               21         0.693670   0.183460   0.561569   x
            x  Ni               22         0.818275   0.183809   0.686362   x
            x  Ni               23         0.942925   0.059065   0.686331   x
            x  Ni               24         0.942792   0.184424   0.561527   x
            x  Ni               25         0.449038   0.433031   0.060744   x
            x  Ni               26         0.691763   0.307942   0.935159   x
            x  Ni               27         0.691835   0.433998   0.810853   x
            x  Ni               28         0.816527   0.434009   0.935926   x
            x  Ni               29         0.941787   0.309434   0.936469   x
            x  Ni               30         0.941734   0.434141   0.811600   x
            x  Ni               31         0.566824   0.688146   0.937135   x
            x  Ni               32         0.691513   0.559619   0.935346   x
            x  Ni               33         0.693765   0.684281   0.811282   x
            x  Ni               34         0.818031   0.683494   0.936466   x
            x  Ni               35         0.941820   0.558711   0.936521   x
            x  Ni               36         0.942325   0.683592   0.811608   x
            x  Ni               37         0.566847   0.933595   0.938419   x
            x  Ni               38         0.695020   0.809752   0.937547   x
            x  Ni               39         0.695820   0.934326   0.811414   x
            x  Ni               40         0.819557   0.934023   0.936875   x
            x  Ni               41         0.942678   0.808428   0.936801   x
            x  Ni               42         0.942872   0.933699   0.811506   x
            x  Ni               43         0.567841   0.179259   0.936617   x
            x  Ni               44         0.693889   0.057726   0.936718   x
            x  Ni               45         0.693666   0.182810   0.811053   x
            x  Ni               46         0.818050   0.183894   0.936167   x
            x  Ni               47         0.942966   0.059157   0.936715   x
            x  Ni               48         0.942288   0.184251   0.811481   x
            x  Ni               49         0.568456   0.433956   0.187278   x
            x  Ni               50         0.693656   0.309329   0.186742   x
            x  Ni               51         0.691732   0.433848   0.060459   x
            x  Ni               52         0.817362   0.433961   0.186220   x
            x  Ni               53         0.942293   0.309707   0.186410   x
            x  Ni               54         0.941776   0.434160   0.061287   x
            x  Ni               55         0.569013   0.683762   0.187376   x
            x  Ni               56         0.692900   0.558385   0.186519   x
            x  Ni               57         0.694408   0.683542   0.061672   x
            x  Ni               58         0.818528   0.682775   0.186718   x
            x  Ni               59         0.942152   0.558474   0.186419   x
            x  Ni               60         0.942269   0.683138   0.061665   x
            x  Ni               61         0.570089   0.932997   0.188243   x
            x  Ni               62         0.696052   0.808383   0.187970   x
            x  Ni               63         0.696415   0.933625   0.062712   x
            x  Ni               64         0.820035   0.933795   0.187295   x
            x  Ni               65         0.943029   0.808180   0.186750   x
            x  Ni               66         0.943155   0.933778   0.061914   x
            x  Ni               67         0.570390   0.183795   0.187522   x
            x  Ni               68         0.696776   0.059006   0.188318   x
            x  Ni               69         0.695187   0.183943   0.061553   x
            x  Ni               70         0.818848   0.184911   0.186999   x
            x  Ni               71         0.943129   0.059381   0.186656   x
            x  Ni               72         0.942242   0.184617   0.061555   x
            x  Ni               73         0.568599   0.433959   0.438532   x
            x  Ni               74         0.693283   0.308684   0.437843   x
            x  Ni               75         0.693398   0.433812   0.312339   x
            x  Ni               76         0.817849   0.433804   0.437164   x
            x  Ni               77         0.942649   0.309505   0.436635   x
            x  Ni               78         0.942176   0.434066   0.311552   x
            x  Ni               79         0.568945   0.684487   0.435989   x
            x  Ni               80         0.693715   0.558709   0.437558   x
            x  Ni               81         0.694565   0.683173   0.311789   x
            x  Ni               82         0.818842   0.683117   0.436433   x
            x  Ni               83         0.942456   0.558536   0.436579   x
            x  Ni               84         0.942788   0.683012   0.311486   x
            x  Ni               85         0.569011   0.934441   0.435148   x
            x  Ni               86         0.695881   0.808959   0.435251   x
            x  Ni               87         0.695867   0.934057   0.311956   x
            x  Ni               88         0.819691   0.934266   0.436239   x
            x  Ni               89         0.943081   0.808404   0.436279   x
            x  Ni               90         0.943566   0.933790   0.311596   x
            x  Ni               91         0.567706   0.182715   0.437285   x
[...]
             Al 36 -- Ni 190                 0.18        -0.00          2.58786
            Ni 36  -- Ni 129                 0.12        -0.00          2.58792
             Al 21 -- Ni 37                  0.20         0.00          2.58800
             Al 49 -- Ni 37                  0.17        -0.00          2.58818
             Al 9  -- Ni 101                 0.19         0.00          2.58818
            Ni 111 -- Ni 113                 0.08        -0.00          2.58823
            Ni 102 -- Ni 131                -0.04        -0.00          2.58837
             Al 45 -- Ni 108                 0.16         0.00          2.58841
            Ni 102 -- Ni 106                 0.06        -0.00          2.58850
            Ni 129 -- Ni 132                 0.13        -0.00          2.58851
            Ni 143 -- Ni 147                 0.09         0.00          2.58862
            Ni 105 -- Ni 131                 0.02        -0.00          2.58863
             Al 7  -- Ni 13                  0.20        -0.00          2.58882
            Ni 108 -- Ni 182                 0.02         0.00          2.58887
             Al 58 -- Ni 103                 0.14        -0.00          2.58897
            Ni 138 -- Ni 139                -0.01         0.00          2.58899
            Ni 177 -- Ni 178                 0.04        -0.00          2.58901
             Al 60 -- Ni 131                 0.17        -0.00          2.58949
            Ni 102 -- Ni 111                 0.08        -0.00          2.58955
            Ni 19  -- Ni 101                 0.04        -0.00          2.59016
             Al 14 -- Ni 16                  0.19        -0.00          2.59034
             Al 40 -- Ni 124                 0.19         0.00          2.59047
             Al 49 -- Ni 144                 0.17         0.00          2.59056
            Ni 183 -- Ni 185                 0.07        -0.00          2.59064
             Al 17 -- Ni 43                  0.19         0.00          2.59068
            Ni 116 -- Ni 118                 0.02        -0.00          2.59084
            Ni 29  -- Ni 48                  0.02        -0.00          2.59115
             Al 1  -- Ni 101                 0.17         0.00          2.59137
            Ni 67  -- Ni 165                 0.03         0.00          2.59145
            Ni 34  -- Ni 41                  0.07         0.00          2.59150
             Al 15 -- Ni 37                  0.20        -0.00          2.59178
            Ni 68  -- Ni 69                  0.02         0.00          2.59201
            Ni 37  -- Ni 38                  0.08         0.00          2.59244
            Ni 147 -- Ni 170                -0.03         0.00          2.59279
             Al 47 -- Ni 145                 0.17        -0.00          2.59317
            Ni 13  -- Ni 120                 0.04        -0.00          2.59348
             Al 9  -- Ni 127                 0.19        -0.00          2.59351
            Ni 113 -- Ni 139                 0.01        -0.00          2.59392
            Ni 123 -- Ni 124                 0.01        -0.00          2.59396
             Al 15 -- Ni 139                 0.18         0.00          2.59399
            Ni 159 -- Ni 167                 0.10         0.00          2.59408
             Al 39 -- Ni 177                 0.17        -0.00          2.59423
            Ni 151 -- Ni 152                 0.03         0.00          2.59438
            Ni 71  -- Ni 96                  0.01        -0.00          2.59440
             Al 21 -- Ni 159                 0.16         0.00          2.59489
             Al 15 -- Ni 44                  0.20        -0.00          2.59507
             Al 51 -- Ni 124                 0.20        -0.00          2.59538
             Al 34 -- Ni 162                 0.16        -0.00          2.59586
            Ni 103 -- Ni 169                 0.06        -0.00          2.59593
             Al 19 -- Ni 134                 0.19         0.00          2.59604
            Ni 155 -- Ni 156                 0.07         0.00          2.59613
             Al 11 -- Ni 7                   0.19         0.00          2.59662
             Al 5  -- Ni 115                 0.16         0.00          2.59672
            Ni 35  -- Ni 129                 0.10        -0.00          2.59675
             Al 11 -- Ni 127                 0.18         0.00          2.59701
             Al 42 -- Ni 155                 0.19         0.00          2.59760
            Ni 124 -- Ni 147                 0.01         0.00          2.59763
             Al 40 -- Ni 163                 0.16        -0.00          2.59766
            Ni 121 -- Ni 191                -0.00         0.00          2.59767
            Ni 111 -- Ni 186                 0.08         0.00          2.59774
            Ni 126 -- Ni 128                 0.09         0.00          2.59786
            Ni 41  -- Ni 66                 -0.03        -0.00          2.59800
            Ni 53  -- Ni 54                  0.00         0.00          2.59803
             Al 40 -- Ni 141                 0.18        -0.00          2.59813
             Al 17 -- Ni 134                 0.19         0.00          2.59822
            Ni 31  -- Ni 32                  0.06         0.00          2.59828
             Al 3  -- Ni 180                 0.15         0.00          2.59842
             Al 3  -- Ni 108                 0.17         0.00          2.59879
            Ni 60  -- Ni 65                  0.01         0.00          2.59885
            Ni 184 -- Ni 188                -0.02         0.00          2.59890
            Ni 41  -- Ni 42                  0.03        -0.00          2.59901
            Ni 178 -- Ni 184                 0.02        -0.00          2.59908
             Al 23 -- Ni 37                  0.19         0.00          2.59923
            Ni 112 -- Ni 122                 0.11        -0.00          2.59960
             Al 19 -- Ni 31                  0.20         0.00          2.59986
            Ni 59  -- Ni 78                 -0.00         0.00          2.59990
            Ni 25  -- Ni 135                -0.01         0.00          2.60005
            Ni 142 -- Ni 143                 0.05        -0.00          2.60015
            Ni 37  -- Ni 39                  0.02         0.00          2.60060
             Al 60 -- Ni 102                 0.20        -0.00          2.60100
             Al 21 -- Ni 152                 0.16         0.00          2.60144
             Al 36 -- Ni 188                 0.19         0.00          2.60146
             Al 9  -- Ni 144                 0.19        -0.00          2.60152
            Ni 110 -- Ni 112                 0.05        -0.00          2.60173
             Al 17 -- Ni 49                  0.19         0.00          2.60186
             Al 19 -- Ni 49                  0.19         0.00          2.60221
             Al 40 -- Ni 170                 0.18         0.00          2.60234
             Al 59 -- Ni 13                  0.17        -0.00          2.60259
            Ni 151 -- Ni 174                -0.05         0.00          2.60285
            Ni 172 -- Ni 178                 0.00         0.00          2.60289
            Ni 117 -- Ni 191                 0.08         0.00          2.60294
            Ni 101 -- Ni 144                 0.10        -0.00          2.60310
             Al 48 -- Ni 120                 0.19        -0.00          2.60337
            Ni 98  -- Ni 99                 -0.01        -0.00          2.60347
            Ni 117 -- Ni 122                 0.04         0.00          2.60368
             Al 55 -- Ni 100                 0.19         0.00          2.60387
            Ni 105 -- Ni 109                 0.05        -0.00          2.60410
             Al 51 -- Ni 163                 0.17        -0.00          2.60484
            Ni 54  -- Ni 59                  0.01         0.00          2.60492
             Al 45 -- Ni 109                 0.16         0.00          2.60506
             Al 5  -- Ni 108                 0.17         0.00          2.60529
            Ni 161 -- Ni 162                -0.01         0.00          2.60539
             Al 42 -- Ni 160                 0.17         0.00          2.60658
             Al 41 -- Ni 129                 0.19         0.00          2.60690
            Ni 104 -- Ni 109                -0.01        -0.00          2.60695
            Ni 7   -- Ni 8                   0.06         0.00          2.60750
            Ni 53  -- Ni 78                  0.00        -0.00          2.60819
            Ni 104 -- Ni 105                 0.05        -0.00          2.60823
            Ni 13  -- Ni 20                  0.05         0.00          2.60859
            Ni 100 -- Ni 180                 0.10        -0.00          2.60863
            Ni 155 -- Ni 188                 0.04         0.00          2.60942
            Ni 170 -- Ni 175                -0.02         0.00          2.60970
            Ni 150 -- Ni 178                 0.09         0.00          2.60978
            Ni 159 -- Ni 160                 0.10         0.00          2.60979
             Al 50 -- Ni 142                 0.15        -0.00          2.60983
             Al 58 -- Ni 117                 0.15        -0.00          2.61006
             Al 58 -- Ni 122                 0.18         0.00          2.61057
            Ni 71  -- Ni 90                  0.02        -0.00          2.61078
            Ni 95  -- Ni 96                  0.01        -0.00          2.61086
            Ni 47  -- Ni 163                 0.05        -0.00          2.61127
            Ni 145 -- Ni 170                 0.01         0.00          2.61139
            Ni 42  -- Ni 47                 -0.01        -0.00          2.61152
             Al 53 -- Ni 137                 0.18         0.00          2.61173
            Ni 26  -- Ni 43                  0.07         0.00          2.61211
            Ni 143 -- Ni 167                 0.01         0.00          2.61217
            Ni 172 -- Ni 181                 0.07         0.00          2.61279
             Al 58 -- Ni 119                 0.18        -0.00          2.61306
             Al 9  -- Ni 43                  0.19        -0.00          2.61349
             Al 35 -- Ni 122                 0.18         0.00          2.61366
            Ni 99  -- Ni 169                 0.00        -0.00          2.61388
            Ni 65  -- Ni 148                 0.04         0.00          2.61429
             Al 34 -- Ni 122                 0.16        -0.00          2.61431
             Al 46 -- Ni 153                 0.13        -0.00          2.61432
            Ni 110 -- Ni 118                 0.04        -0.00          2.61518
             Al 40 -- Ni 143                 0.18         0.00          2.61685
             Al 11 -- Ni 31                  0.18        -0.00          2.61719
            Ni 156 -- Ni 157                 0.13        -0.00          2.61729
            Ni 168 -- Ni 177                 0.04        -0.00          2.61740
             Al 36 -- Ni 184                 0.18         0.00          2.61778
            Ni 105 -- Ni 132                 0.04        -0.00          2.61785
            Ni 65  -- Ni 66                  0.02         0.00          2.61787
            Ni 25  -- Ni 126                -0.01         0.00          2.61859
            Ni 114 -- Ni 135                 0.06         0.00          2.61878
            Ni 181 -- Ni 188                 0.08         0.00          2.61965
            Ni 156 -- Ni 167                 0.11         0.00          2.61993
             Al 59 -- Ni 7                   0.16        -0.00          2.62046
            Ni 146 -- Ni 174                -0.03         0.00          2.62053
             Al 50 -- Ni 117                 0.15        -0.00          2.62092
            Ni 100 -- Ni 107                 0.01        -0.00          2.62167
            Ni 155 -- Ni 157                 0.07         0.00          2.62223
            Ni 107 -- Ni 114                 0.06        -0.00          2.62283
             Al 62 -- Ni 179                 0.12         0.00          2.62314
            Ni 102 -- Ni 114                -0.01        -0.00          2.62325
            Ni 148 -- Ni 150                 0.09         0.00          2.62372
             Al 63 -- Ni 100                 0.16        -0.00          2.62382
            Ni 115 -- Ni 117                 0.09         0.00          2.62455
            Ni 106 -- Ni 133                 0.01         0.00          2.62512
             Al 62 -- Ni 171                 0.11         0.00          2.62537
            Ni 140 -- Ni 141                 0.07        -0.00          2.62550
             Al 46 -- Ni 147                 0.12        -0.00          2.62557
            Ni 177 -- Ni 179                 0.04        -0.00          2.62677
             Al 49 -- Ni 139                 0.17         0.00          2.62719
            Ni 121 -- Ni 173                -0.02         0.00          2.62766
             Al 36 -- Ni 122                 0.17         0.00          2.62771
             Al 45 -- Ni 182                 0.18        -0.00          2.62808
            Ni 100 -- Ni 103                 0.13        -0.00          2.62886
            Ni 136 -- Ni 141                 0.01        -0.00          2.63050
            Ni 114 -- Ni 133                 0.02         0.00          2.63098
             Al 56 -- Ni 130                 0.15         0.00          2.63105
            Ni 173 -- Ni 192                -0.02         0.00          2.63212
            Ni 130 -- Ni 153                -0.00         0.00          2.63221
            Ni 138 -- Ni 160                 0.06         0.00          2.63231
             Al 43 -- Ni 155                 0.18        -0.00          2.63312
             Al 23 -- Ni 166                 0.14         0.00          2.63407
             Al 42 -- Ni 153                 0.18         0.00          2.63455
            Ni 124 -- Ni 125                 0.03        -0.00          2.63808
             Al 48 -- Al 49                  0.27         0.00          2.63997
            Ni 178 -- Ni 188                 0.01         0.00          2.64124
            Ni 106 -- Ni 138                -0.00         0.00          2.64205
             Al 37 -- Ni 190                 0.15         0.00          2.64233
            Ni 162 -- Ni 164                 0.01         0.00          2.64340
             Al 61 -- Ni 104                 0.12         0.00          2.64454
            Ni 150 -- Ni 153                -0.04         0.00          2.64480
            Ni 154 -- Ni 155                 0.06         0.00          2.64503
             Al 52 -- Ni 31                  0.16        -0.00          2.64515
            Ni 127 -- Ni 135                -0.03         0.00          2.64563
            Ni 156 -- Ni 162                 0.13         0.00          2.64611
            Ni 100 -- Ni 128                 0.09        -0.00          2.64651
             Al 48 -- Al 50                  0.25        -0.00          2.64725
            Ni 149 -- Ni 150                -0.02         0.00          2.64730
             Al 35 -- Ni 190                 0.13        -0.00          2.64751
             Al 56 -- Ni 124                 0.15         0.00          2.64855
             Al 50 -- Al 58                  0.24        -0.00          2.65226
             Al 23 -- Ni 159                 0.13         0.00          2.65254
            Ni 126 -- Ni 127                 0.01         0.00          2.65372
             Al 50 -- Ni 119                 0.13        -0.00          2.65635
             Al 37 -- Ni 122                 0.15        -0.00          2.65967
             Al 33 -- Ni 122                 0.14         0.00          2.66187
             Al 35 -- Ni 189                 0.15         0.00          2.66345
            Ni 100 -- Ni 101                 0.06         0.00          2.66450
             Al 52 -- Ni 37                  0.15        -0.00          2.66458
             Al 13 -- Ni 139                 0.14         0.00          2.66532
             Al 23 -- Al 49                  0.24         0.00          2.66746
             Al 43 -- Ni 160                 0.14        -0.00          2.66931
            Ni 168 -- Ni 169                 0.03        -0.00          2.67012
             Al 38 -- Ni 109                 0.11         0.00          2.67078
            Ni 129 -- Ni 130                 0.08        -0.00          2.67638
             Al 38 -- Al 45                  0.25        -0.00          2.67841
            Ni 161 -- Ni 170                 0.04         0.00          2.69042
             Al 46 -- Al 56                  0.23         0.00          2.69199
             Al 42 -- Al 43                  0.23         0.00          2.70136
            Ni 130 -- Ni 149                 0.01        -0.00          2.70250
             Al 42 -- Ni 150                 0.15         0.00          2.71185
             Al 46 -- Al 47                  0.20         0.00          2.72185
             Al 36 -- Al 37                  0.22         0.00          2.72552
            Ni 164 -- Ni 170                 0.03        -0.00          2.72957
             Al 33 -- Al 35                  0.20         0.00          2.73376
             Al 33 -- Al 58                  0.20        -0.00          2.73381
             Al 34 -- Al 35                  0.19         0.00          2.73463
             Al 34 -- Al 37                  0.20         0.00          2.74207
             Al 5  -- Al 59                  0.20         0.00          2.74756
             Al 55 -- Al 56                  0.19         0.00          2.75958
             Al 57 -- Al 63                  0.17        -0.00          2.76353
             Al 21 -- Al 52                  0.20         0.00          2.76506
             Al 15 -- Al 49                  0.20         0.00          2.76964
             Al 38 -- Al 61                  0.25         0.00          2.77125
             Al 38 -- Al 63                  0.15        -0.00          2.77706
             Al 53 -- Al 54                  0.18        -0.00          2.77801
             Al 44 -- Al 62                  0.21         0.00          2.78244
             Al 13 -- Al 52                  0.19         0.00          2.78403
             Al 43 -- Al 54                  0.17         0.00          2.78586
             Al 40 -- Al 51                  0.20        -0.00          2.78609
             Al 55 -- Al 63                  0.16        -0.00          2.78972
             Al 13 -- Al 59                  0.18        -0.00          2.79021
             Al 41 -- Al 43                  0.15         0.00          2.80008
             Al 44 -- Al 46                  0.17         0.00          2.80116
             Al 41 -- Al 53                  0.17        -0.00          2.80414
             Al 61 -- Al 63                  0.14        -0.00          2.81219
             Al 56 -- Al 57                  0.17        -0.00          2.82040
             Al 41 -- Al 54                  0.13        -0.00          2.85073
             Al 47 -- Al 62                  0.12        -0.00          2.89062
             Al 55 -- Al 57                  0.09        -0.00          2.94056
================================================================================
 

Writing analysis data to castep.castep_bin

Writing model to castep.check
 
 A BibTeX formatted list of references used in this run has been written to 
 castep.bib
 
Initialisation time =     13.68 s
Calculation time    =  17713.69 s
Finalisation time   =     15.65 s
Total time          =  17743.03 s
Peak Memory Use     = 2403104 kB
  
Overall parallel efficiency rating: Good (71%)                                  
  
Data was distributed by:-
G-vector (48-way); efficiency rating: Good (72%)                                
