 +-------------------------------------------------+
 |                                                 |
 |      CCC   AA    SSS  TTTTT  EEEEE  PPPP        |
 |     C     A  A  S       T    E      P   P       |
 |     C     AAAA   SS     T    EEE    PPPP        |
 |     C     A  A     S    T    E      P           |
 |      CCC  A  A  SSS     T    EEEEE  P           |
 |                                                 |
 +-------------------------------------------------+
 |                                                 |
 | Welcome to Academic Release CASTEP version 20.11|          
 | Ab Initio Total Energy Program                  |
 |                                                 |
 | Authors:                                        |
 | M. Segall, M. Probert, C. Pickard, P. Hasnip,   |
 | S. Clark, K. Refson, J. R. Yates, M. Payne      |
 |                                                 |
 | Contributors:                                   |
 | P. Lindan, P. Haynes, J. White, V. Milman,      |
 | N. Govind, M. Gibson, P. Tulip, V. Cocula,      |
 | B. Montanari, D. Quigley, M. Glover,            |
 | L. Bernasconi, A. Perlov, M. Plummer,           |
 | E. McNellis, J. Meyer, J. Gale, D. Jochym       |
 | J. Aarons, B. Walker, R. Gillen, D. Jones       |
 | T. Green, I. J. Bush, C. J. Armstrong,          |
 | E. J. Higgins, E. L. Brown, M. S. McFly,        |
 | J. Wilkins, B-C. Shih, P. J. P. Byrne,          |
 | R. J. Maurer, J. C. Womack, J. Dziedzic,        |
 | J. R. Kermode, A. Bartok-Partay                 |
 |                                                 |
 | Copyright (c) 2000 - 2020                       |
 |                                                 |
 |     Distributed under license from Cambridge    |
 |     Enterprise for academic use only.           |
 |                                                 |
 | Please cite                                     |
 |                                                 |
 |     "First principles methods using CASTEP"     |
 |                                                 |
 |         Zeitschrift fuer Kristallographie       |
 |           220(5-6) pp. 567-570 (2005)           |
 |                                                 |
 | S. J. Clark, M. D. Segall, C. J. Pickard,       |
 | P. J. Hasnip, M. J. Probert, K. Refson,         |
 | M. C. Payne                                     |
 |                                                 |
 |       in all publications arising from          |
 |              your use of CASTEP                 |
 |                                                 |
 +-------------------------------------------------+
 |                                                 |
 |              http://www.castep.org              |
 |                                                 |
 +-------------------------------------------------+
 
 
 
 Compiled for linux_x86_64_ifort on Wed, 25 Aug 2021 18:50:38 +0100
 from code version e772bf432+  HEAD  Sat Apr 3 17:41:32 2021 +0100
 Compiler: Intel Fortran 19.0.5.281; Optimisation: fast
 MATHLIBS: Intel MKL(2019.0.5) (LAPACK version 3.7.0)
 FFT Lib : mkl
 Fundamental constants values: CODATA 2014
 
 Run started: Thu, 09 Mar 2023 20:32:34 +0000
 
 Atomic calculation performed for Al: 1s2 2s2 2p6 3s2 3p1
 
 Converged in 52 iterations to an ae energy of -6606.982 eV
 
   ============================================================                
   | Pseudopotential Report - Date of generation  9-03-2023   |                
   ------------------------------------------------------------                
   | Element: Al Ionic charge:  3.00 Level of theory: RPBE    |                
   | Atomic Solver: Koelling-Harmon                           |                
   |                                                          |                
   |               Reference Electronic Structure             |                
   |         Orbital         Occupation         Energy        |                
   |            3s              2.000           -0.284        |                
   |            3p              1.000           -0.100        |                
   |                                                          |                
   |                 Pseudopotential Definition               |                
   |        Beta     l      e      Rc     scheme   norm       |                
   |          1      0   -0.284   2.192     qc      0         |                
   |          2      0    0.250   2.192     qc      0         |                
   |          3      1   -0.100   2.192     qc      0         |                
   |          4      1    0.250   2.192     qc      0         |                
   |          5      2    0.000   2.000     qc      0         |                
   |          6      2    0.250   2.000     qc      0         |                
   |         loc     3    0.000   2.192     pn      0         |                
   |                                                          |                
   | Augmentation charge Rinner = 1.398                       |                
   | Partial core correction Rc = 1.398                       |                
   ------------------------------------------------------------                
   | "3|2.2|2.2|1.4|4|5|5|30:31:32U2U2"                       |                
   ------------------------------------------------------------                
   |      Author: Chris J. Pickard, Cambridge University      |                
   ============================================================                
 
 Atomic calculation performed for Ni: 1s2 2s2 2p6 3s2 3p6 3d8 4s2
 
 Converged in 109 iterations to an ae energy of -41381.414 eV
 
   ============================================================                
   | Pseudopotential Report - Date of generation  9-03-2023   |                
   ------------------------------------------------------------                
   | Element: Ni Ionic charge: 10.00 Level of theory: RPBE    |                
   | Atomic Solver: Koelling-Harmon                           |                
   |                                                          |                
   |               Reference Electronic Structure             |                
   |         Orbital         Occupation         Energy        |                
   |            3d              8.000           -0.324        |                
   |            4s              2.000           -0.204        |                
   |                                                          |                
   |                 Pseudopotential Definition               |                
   |        Beta     l      e      Rc     scheme   norm       |                
   |          1      0   -0.204   2.401     qc      0         |                
   |          2      0    0.250   2.401     qc      0         |                
   |          3      1    0.000   2.401     qc      0         |                
   |          4      1    0.250   2.401     qc      0         |                
   |          5      2   -0.324   1.999     qc      0         |                
   |          6      2    0.250   1.999     qc      0         |                
   |         loc     3    0.000   2.401     pn      0         |                
   |                                                          |                
   | Augmentation charge Rinner = 1.001                       |                
   | Partial core correction Rc = 1.001                       |                
   ------------------------------------------------------------                
   | "3|2.4|2.4|1.0|8|9|10|40:41:32U2U2(qc=5.5)"              |                
   ------------------------------------------------------------                
   |      Author: Chris J. Pickard, Cambridge University      |                
   ============================================================                
 
 Pseudo atomic calculation performed for Al 3s2 3p1
 
 Converged in 13 iterations to a total energy of -107.6592 eV
 
 Pseudo atomic calculation performed for Ni 3d8 4s2
 
 Converged in 41 iterations to a total energy of -1369.7891 eV
 Calculation parallelised over 48 processes.
 Data is distributed by G-vector(48-way)

 ************************************ Title ************************************
 

 ***************************** General Parameters ******************************
  
 output verbosity                               : normal  (1)
 write checkpoint data to                       : castep.check
 type of calculation                            : geometry optimization
 stress calculation                             : off
 density difference calculation                 : off
 electron localisation func (ELF) calculation   : off
 Hirshfeld analysis                             : off
 molecular orbital projected DOS                : off
 deltaSCF calculation                           : off
 unlimited duration calculation
 timing information                             : on
 memory usage estimate                          : on
 write extra output files                       : on
 write final potential to formatted file        : off
 write final density to formatted file          : off
 write BibTeX reference list                    : on
 write OTFG pseudopotential files               : on
 write electrostatic potential file             : on
 write bands file                               : on
 checkpoint writing                             : both castep_bin and check files
  
 output         length unit                     : A
 output           mass unit                     : amu
 output           time unit                     : ps
 output         charge unit                     : e
 output           spin unit                     : hbar/2
 output         energy unit                     : eV
 output          force unit                     : eV/A
 output       velocity unit                     : A/ps
 output       pressure unit                     : GPa
 output     inv_length unit                     : 1/A
 output      frequency unit                     : cm-1
 output force constant unit                     : eV/A**2
 output         volume unit                     : A**3
 output   IR intensity unit                     : (D/A)**2/amu
 output         dipole unit                     : D
 output         efield unit                     : eV/A/e
 output        entropy unit                     : J/mol/K
 output    efield chi2 unit                     : pm/V
  
 wavefunctions paging                           : none
 random number generator seed                   : randomised (203234854)
 data distribution                              : optimal for this architecture
 optimization strategy                          : maximize speed(+++)

 *********************** Exchange-Correlation Parameters ***********************
  
 using functional                               : revised Perdew Burke Ernzerhof
 relativistic treatment                         : Koelling-Harmon
 DFT+D: Semi-empirical dispersion correction    : off

 ************************* Pseudopotential Parameters **************************
  
 pseudopotential representation                 : reciprocal space
 <beta|phi> representation                      : reciprocal space
 spin-orbit coupling                            : off

 **************************** Basis Set Parameters *****************************
  
 plane wave basis set cut-off                   :   900.0000   eV
 size of standard grid                          :     1.7500
 size of   fine   gmax                          :    26.8966   1/A
 finite basis set correction                    : none

 **************************** Electronic Parameters ****************************
  
 number of  electrons                           :  2130.    
 net charge of system                           :  0.000    
 treating system as non-spin-polarized
 number of bands                                :       1177

 ********************* Electronic Minimization Parameters **********************
  
 Method: Treating system as metallic with density mixing treatment of electrons,
         and number of  SD  steps               :          1
         and number of  CG  steps               :          4
  
 total energy / atom convergence tol.           : 0.1000E-05   eV
 eigen-energy convergence tolerance             : 0.2167E-06   eV
 max force / atom convergence tol.              : ignored
 convergence tolerance window                   :          3   cycles
 max. number of SCF cycles                      :        200
 number of fixed-spin iterations                :         10
 smearing scheme                                : Gaussian
 smearing width                                 : 0.2000       eV
 Fermi energy convergence tolerance             : 0.2721E-13   eV
 periodic dipole correction                     : NONE
 periodically dump wavefunctions to             : castep.wvfn
 dump wavefunctions every                       :          1   SCF cycles

 ************************** Density Mixing Parameters **************************
  
 density-mixing scheme                          : Pulay
 max. length of mixing history                  :         20
 charge density mixing amplitude                : 0.8000    
 cut-off energy for mixing                      :  900.0       eV

 *********************** Population Analysis Parameters ************************
  
 Population analysis with cutoff                :  3.000       A
 Population analysis output                     : summary and pdos components

 ********************** Geometry Optimization Parameters ***********************
  
 optimization method                            : LBFGS
 max. no. of LBFGS updates                      : unbounded
 variable cell method                           : fixed basis quality
 max. number of steps                           :         30
 estimated bulk modulus                         :  500.0       GPa
 estimated <frequency>                          :  1668.       cm-1
 geom line minimiser                            : on
 with line minimiser tolerance                  :     0.4000
 total energy convergence tolerance             : 0.2000E-04   eV/atom
        max ionic |force| tolerance             : 0.5000E-01   eV/A
 max ionic |displacement| tolerance             : 0.1000E-02   A
   max |stress component| tolerance             : 0.1000       GPa
 convergence tolerance window                   :          2   steps
 backup results every                           :          5   steps
 write geom trajectory file                     : on

 *******************************************************************************
  
 
                           -------------------------------
                                      Unit Cell
                           -------------------------------
        Real Lattice(A)                      Reciprocal Lattice(1/A)
    14.4648280     0.0000000     0.0000000        0.434376773   0.000000000   0.000000000
     0.0000000    14.4648280     0.0000000        0.000000000   0.434376773   0.000000000
     0.0000000     0.0000000    14.4648280        0.000000000   0.000000000   0.434376773
 
                       Lattice parameters(A)       Cell Angles
                    a =     14.464828          alpha =   90.000000
                    b =     14.464828          beta  =   90.000000
                    c =     14.464828          gamma =   90.000000
 
                       Current cell volume =          3026.494030       A**3
                                   density =             4.316581   AMU/A**3
                                           =             7.167851     g/cm^3
 
                           -------------------------------
                                     Cell Contents
                           -------------------------------
                         Total number of ions in cell =  255
                      Total number of species in cell =    2
                        Max number of any one species =  195
 
            xxxxxxxxxxxxxxxxxxxxxxxxxxxxxxxxxxxxxxxxxxxxxxxxxxxxxxxxxxxx
            x  Element    Atom        Fractional coordinates of atoms  x
            x            Number           u          v          w      x
            x----------------------------------------------------------x
            x  Al           1         0.946431   0.064228   0.936133   x 
            x  Al           2         0.672501   0.939098   0.810503   x 
            x  Al           3         0.809265   0.069778   0.809050   x 
            x  Al           4         0.420179   0.056475   0.180984   x 
            x  Al           5         0.440122   0.937314   0.810789   x 
            x  Al           6         0.422318   0.698045   0.809022   x 
            x  Al           7         0.559866   0.059876   0.057117   x 
            x  Al           8         0.299490   0.944087   0.935034   x 
            x  Al           9         0.940439   0.813555   0.939535   x 
            x  Al          10         0.809866   0.816255   0.810637   x 
            x  Al          11         0.556977   0.572108   0.065183   x 
            x  Al          12         0.422600   0.561000   0.934229   x 
            x  Al          13         0.182263   0.698423   0.808728   x 
            x  Al          14         0.944182   0.310540   0.935230   x 
            x  Al          15         0.688925   0.564826   0.928128   x 
            x  Al          16         0.556654   0.313990   0.822571   x 
            x  Al          17         0.181932   0.427592   0.810744   x 
            x  Al          18         0.184683   0.562285   0.944446   x 
            x  Al          19         0.815764   0.066674   0.569659   x 
            x  Al          20         0.306731   0.937059   0.679499   x 
            x  Al          21         0.176271   0.069034   0.685376   x 
            x  Al          22         0.805801   0.687182   0.679994   x 
            x  Al          23         0.562324   0.693354   0.678173   x 
            x  Al          24         0.178389   0.698235   0.554519   x 
            x  Al          25         0.944870   0.560169   0.687254   x 
            x  Al          26         0.799462   0.441517   0.684880   x 
            x  Al          27         0.559504   0.440045   0.680810   x 
            x  Al          28         0.414746   0.563200   0.674867   x 
            x  Al          29         0.189135   0.560173   0.674789   x 
            x  Al          30         0.946521   0.309475   0.687385   x 
            x  Al          31         0.934384   0.566336   0.929424   x 
            x  Al          32         0.804161   0.445688   0.437462   x 
            x  Al          33         0.800796   0.302222   0.561328   x 
            x  Al          34         0.555564   0.183632   0.682610   x 
            x  Al          35         0.308612   0.309984   0.572876   x 
            x  Al          36         0.935817   0.938269   0.310241   x 
            x  Al          37         0.804378   0.931818   0.183967   x 
            x  Al          38         0.685883   0.061873   0.436449   x 
            x  Al          39         0.558847   0.055866   0.305454   x 
            x  Al          40         0.174963   0.058246   0.435737   x 
            x  Al          41         0.687741   0.822170   0.444033   x 
            x  Al          42         0.815789   0.685005   0.439612   x 
            x  Al          43         0.559089   0.815228   0.312781   x 
            x  Al          44         0.941986   0.444302   0.303308   x 
            x  Al          45         0.430911   0.434618   0.312716   x 
            x  Al          46         0.562281   0.572865   0.315557   x 
            x  Al          47         0.301977   0.443942   0.442732   x 
            x  Al          48         0.943890   0.306061   0.436895   x 
            x  Al          49         0.802554   0.304997   0.304779   x 
            x  Al          50         0.433397   0.196530   0.307895   x 
            x  Al          51         0.305724   0.187191   0.437275   x 
            x  Al          52         0.804753   0.066732   0.057926   x 
            x  Al          53         0.808802   0.690751   0.186680   x 
            x  Al          54         0.560789   0.810485   0.055554   x 
            x  Al          55         0.425757   0.813101   0.190198   x 
            x  Al          56         0.298496   0.807857   0.061427   x 
            x  Al          57         0.801990   0.308899   0.064179   x 
            x  Al          58         0.800169   0.308177   0.815112   x 
            x  Al          59         0.939900   0.442451   0.071130   x 
            x  Al          60         0.563566   0.432260   0.183650   x 
            x  Ni           1         0.058351   0.189191   0.187116   x 
            x  Ni           2         0.058117   0.313545   0.062563   x 
            x  Ni           3         0.058774   0.438175   0.188335   x 
            x  Ni           4         0.057979   0.562536   0.063193   x 
            x  Ni           5         0.057184   0.687487   0.188702   x 
            x  Ni           6         0.058128   0.813006   0.062555   x 
            x  Ni           7         0.057324   0.938687   0.186143   x 
            x  Ni           8         0.058058   0.064442   0.062590   x 
            x  Ni           9         0.057272   0.188856   0.435473   x 
            x  Ni          10         0.058782   0.313894   0.312124   x 
            x  Ni          11         0.059008   0.437742   0.436468   x 
            x  Ni          12         0.058460   0.562842   0.313025   x 
            x  Ni          13         0.055518   0.689554   0.435134   x 
            x  Ni          14         0.055781   0.813480   0.310380   x 
            x  Ni          15         0.053479   0.938343   0.434985   x 
            x  Ni          16         0.055917   0.063854   0.310017   x 
            x  Ni          17         0.054202   0.188685   0.686067   x 
            x  Ni          18         0.056242   0.312561   0.560966   x 
            x  Ni          19         0.059532   0.437496   0.686516   x 
            x  Ni          20         0.058647   0.564205   0.561004   x 
            x  Ni          21         0.061703   0.688750   0.684931   x 
            x  Ni          22         0.053768   0.815358   0.559894   x 
            x  Ni          23         0.055076   0.940609   0.686150   x 
            x  Ni          24         0.054255   0.064126   0.560670   x 
            x  Ni          25         0.056797   0.188812   0.937937   x 
            x  Ni          26         0.056107   0.311555   0.812265   x 
            x  Ni          27         0.060890   0.437869   0.936801   x 
            x  Ni          28         0.069322   0.563017   0.810087   x 
            x  Ni          29         0.060665   0.687906   0.935570   x 
            x  Ni          30         0.056384   0.815249   0.811020   x 
            x  Ni          31         0.057565   0.939889   0.936354   x 
            x  Ni          32         0.055144   0.065296   0.811692   x 
            x  Ni          33         0.183324   0.313629   0.187219   x 
            x  Ni          34         0.306706   0.189790   0.187054   x 
            x  Ni          35         0.307776   0.312883   0.061425   x 
            x  Ni          36         0.181389   0.189605   0.061849   x 
            x  Ni          37         0.433225   0.314687   0.183792   x 
            x  Ni          38         0.553660   0.183435   0.184121   x 
            x  Ni          39         0.558145   0.313040   0.058229   x 
            x  Ni          40         0.430832   0.186303   0.061812   x 
            x  Ni          41         0.681198   0.309967   0.184254   x 
            x  Ni          42         0.808031   0.184586   0.184277   x 
            x  Ni          43         0.680015   0.185671   0.060018   x 
            x  Ni          44         0.933319   0.312905   0.186464   x 
            x  Ni          45         0.933059   0.567422   0.185456   x 
            x  Ni          46         0.937080   0.188020   0.061933   x 
            x  Ni          47         0.183254   0.563070   0.187484   x 
            x  Ni          48         0.307886   0.438442   0.188399   x 
            x  Ni          49         0.308642   0.564410   0.064836   x 
            x  Ni          50         0.182509   0.437192   0.063457   x 
            x  Ni          51         0.436340   0.562520   0.190278   x 
            x  Ni          52         0.683028   0.442788   0.059920   x 
            x  Ni          53         0.433473   0.440801   0.063118   x 
            x  Ni          54         0.682169   0.567389   0.186723   x 
            x  Ni          55         0.933135   0.689528   0.311909   x 
            x  Ni          56         0.809109   0.564094   0.059156   x 
            x  Ni          57         0.181667   0.811704   0.189024   x 
            x  Ni          58         0.306156   0.687261   0.189914   x 
            x  Ni          59         0.179152   0.687140   0.063168   x 
            x  Ni          60         0.557831   0.694052   0.188134   x 
            x  Ni          61         0.430152   0.690557   0.061618   x 
            x  Ni          62         0.683216   0.812164   0.184750   x 
            x  Ni          63         0.934681   0.687961   0.059607   x 
            x  Ni          64         0.808289   0.813681   0.056937   x 
            x  Ni          65         0.932118   0.814695   0.184512   x 
            x  Ni          66         0.183231   0.064143   0.187321   x 
            x  Ni          67         0.301858   0.935317   0.185288   x 
            x  Ni          68         0.303144   0.063077   0.060085   x 
            x  Ni          69         0.178851   0.938336   0.061311   x 
            x  Ni          70         0.427688   0.933146   0.059353   x 
            x  Ni          71         0.555433   0.933623   0.181448   x 
            x  Ni          72         0.427633   0.813894   0.937196   x 
            x  Ni          73         0.556041   0.936656   0.936755   x 
            x  Ni          74         0.682278   0.058997   0.183608   x 
            x  Ni          75         0.934415   0.939995   0.060212   x 
            x  Ni          76         0.683922   0.936895   0.056880   x 
            x  Ni          77         0.932740   0.059811   0.184235   x 
            x  Ni          78         0.811148   0.941418   0.931821   x 
            x  Ni          79         0.184822   0.312460   0.439213   x 
            x  Ni          80         0.305958   0.314876   0.313678   x 
            x  Ni          81         0.181517   0.188196   0.312963   x 
            x  Ni          82         0.428804   0.313207   0.437827   x 
            x  Ni          83         0.556475   0.186097   0.433360   x 
            x  Ni          84         0.559058   0.313129   0.310643   x 
            x  Ni          85         0.684919   0.310730   0.433736   x 
            x  Ni          86         0.810535   0.185361   0.435028   x 
            x  Ni          87         0.679760   0.182821   0.309759   x 
            x  Ni          88         0.937065   0.186059   0.309402   x 
            x  Ni          89         0.184057   0.565281   0.442580   x 
            x  Ni          90         0.308238   0.562761   0.313778   x 
            x  Ni          91         0.182656   0.439514   0.313606   x 
            x  Ni          92         0.430881   0.563648   0.438422   x 
            x  Ni          93         0.557688   0.439189   0.435182   x 
            x  Ni          94         0.683358   0.566251   0.438150   x 
            x  Ni          95         0.682182   0.438832   0.311097   x 
            x  Ni          96         0.807345   0.564284   0.310882   x 
            x  Ni          97         0.807124   0.438631   0.187135   x 
            x  Ni          98         0.934948   0.560020   0.436986   x 
            x  Ni          99         0.180629   0.817435   0.433661   x 
            x  Ni         100         0.306549   0.687852   0.438677   x 
            x  Ni         101         0.305934   0.813020   0.313501   x 
            x  Ni         102         0.180629   0.687363   0.314641   x 
            x  Ni         103         0.432585   0.816262   0.434304   x 
            x  Ni         104         0.559721   0.692753   0.439075   x 
            x  Ni         105         0.432578   0.689426   0.314473   x 
            x  Ni         106         0.684235   0.937293   0.311868   x 
            x  Ni         107         0.686718   0.694014   0.316896   x 
            x  Ni         108         0.933328   0.815730   0.438973   x 
            x  Ni         109         0.808455   0.814928   0.314170   x 
            x  Ni         110         0.305235   0.941564   0.435689   x 
            x  Ni         111         0.306412   0.064928   0.311814   x 
            x  Ni         112         0.179219   0.938950   0.310945   x 
            x  Ni         113         0.432355   0.064759   0.431573   x 
            x  Ni         114         0.558467   0.940188   0.436043   x 
            x  Ni         115         0.430766   0.938362   0.309807   x 
            x  Ni         116         0.813001   0.942430   0.438584   x 
            x  Ni         117         0.808680   0.061704   0.308525   x 
            x  Ni         118         0.935840   0.063395   0.437116   x 
            x  Ni         119         0.181072   0.308648   0.686949   x 
            x  Ni         120         0.308702   0.184992   0.687168   x 
            x  Ni         121         0.180310   0.187566   0.560209   x 
            x  Ni         122         0.439153   0.312495   0.688885   x 
            x  Ni         123         0.433819   0.186651   0.811900   x 
            x  Ni         124         0.558555   0.310994   0.558893   x 
            x  Ni         125         0.431990   0.187189   0.559956   x 
            x  Ni         126         0.681463   0.183021   0.560136   x 
            x  Ni         127         0.939254   0.188335   0.562388   x 
            x  Ni         128         0.306109   0.434259   0.685315   x 
            x  Ni         129         0.181000   0.435037   0.562222   x 
            x  Ni         130         0.554627   0.564819   0.560959   x 
            x  Ni         131         0.685608   0.691374   0.558668   x 
            x  Ni         132         0.430756   0.436679   0.559988   x 
            x  Ni         133         0.548623   0.568760   0.803861   x 
            x  Ni         134         0.681919   0.437028   0.558871   x 
            x  Ni         135         0.932707   0.431401   0.562018   x 
            x  Ni         136         0.811131   0.562206   0.564456   x 
            x  Ni         137         0.180830   0.817458   0.683000   x 
            x  Ni         138         0.302008   0.692569   0.680608   x 
            x  Ni         139         0.306494   0.816350   0.556004   x 
            x  Ni         140         0.432000   0.815220   0.682931   x 
            x  Ni         141         0.558521   0.817670   0.558585   x 
            x  Ni         142         0.430599   0.691228   0.560376   x 
            x  Ni         143         0.684554   0.816240   0.685211   x 
            x  Ni         144         0.680073   0.565334   0.685253   x 
            x  Ni         145         0.811361   0.816513   0.564005   x 
            x  Ni         146         0.934554   0.813842   0.688365   x 
            x  Ni         147         0.936716   0.687875   0.565026   x 
            x  Ni         148         0.304273   0.063897   0.559615   x 
            x  Ni         149         0.178191   0.939425   0.561177   x 
            x  Ni         150         0.431311   0.060914   0.684938   x 
            x  Ni         151         0.556516   0.939216   0.683864   x 
            x  Ni         152         0.557341   0.062988   0.558806   x 
            x  Ni         153         0.431362   0.940023   0.558792   x 
            x  Ni         154         0.683194   0.063971   0.687441   x 
            x  Ni         155         0.809404   0.940912   0.691198   x 
            x  Ni         156         0.686672   0.944134   0.563486   x 
            x  Ni         157         0.938019   0.065898   0.690442   x 
            x  Ni         158         0.936777   0.940885   0.565768   x 
            x  Ni         159         0.184205   0.311456   0.937005   x 
            x  Ni         160         0.307666   0.186581   0.935090   x 
            x  Ni         161         0.309800   0.310339   0.809881   x 
            x  Ni         162         0.180894   0.188669   0.811882   x 
            x  Ni         163         0.430692   0.315648   0.937706   x 
            x  Ni         164         0.554345   0.187034   0.938207   x 
            x  Ni         165         0.677223   0.312097   0.688021   x 
            x  Ni         166         0.430012   0.060602   0.937591   x 
            x  Ni         167         0.682645   0.315266   0.938754   x 
            x  Ni         168         0.811565   0.188193   0.936954   x 
            x  Ni         169         0.809556   0.192013   0.688665   x 
            x  Ni         170         0.678184   0.187637   0.812328   x 
            x  Ni         171         0.934578   0.433474   0.808820   x 
            x  Ni         172         0.939348   0.189707   0.813040   x 
            x  Ni         173         0.305224   0.436987   0.936290   x 
            x  Ni         174         0.298900   0.563606   0.808958   x 
            x  Ni         175         0.554365   0.683861   0.932806   x 
            x  Ni         176         0.431455   0.440287   0.808649   x 
            x  Ni         177         0.684669   0.687649   0.057287   x 
            x  Ni         178         0.814239   0.435555   0.938357   x 
            x  Ni         179         0.811358   0.563023   0.806106   x 
            x  Ni         180         0.679819   0.439616   0.811966   x 
            x  Ni         181         0.181282   0.815351   0.936002   x 
            x  Ni         182         0.302862   0.689129   0.935122   x 
            x  Ni         183         0.306043   0.821720   0.810090   x 
            x  Ni         184         0.556205   0.810512   0.810590   x 
            x  Ni         185         0.556021   0.447151   0.937266   x 
            x  Ni         186         0.684335   0.812133   0.932091   x 
            x  Ni         187         0.811645   0.689924   0.932255   x 
            x  Ni         188         0.683374   0.690129   0.807509   x 
            x  Ni         189         0.936092   0.690262   0.807770   x 
            x  Ni         190         0.180530   0.065802   0.935041   x 
            x  Ni         191         0.307401   0.060122   0.808584   x 
            x  Ni         192         0.179325   0.940725   0.807625   x 
            x  Ni         193         0.556644   0.064496   0.812169   x 
            x  Ni         194         0.683808   0.062731   0.933624   x 
            x  Ni         195         0.938328   0.939480   0.812814   x 
            xxxxxxxxxxxxxxxxxxxxxxxxxxxxxxxxxxxxxxxxxxxxxxxxxxxxxxxxxxxx
 
 
                         No user defined ionic velocities
 
                           -------------------------------
                                   Details of Species
                           -------------------------------
 
                               Mass of species in AMU
                                    Al   26.9815400
                                    Ni   58.6934000
 
                          Electric Quadrupole Moment (Barn)
                                    Al    0.1466000 Isotope 27
                                    Ni    0.1620000 Isotope 61
 
                          Files used for pseudopotentials:
                                    Al 3|2.2|2.2|1.4|4|5|5|30:31:32U2U2
                                    Ni 3|2.4|2.4|1.0|8|9|10|40:41:32U2U2(qc=5.5)
 
                           -------------------------------
                              k-Points For BZ Sampling
                           -------------------------------
                       MP grid size for SCF calculation is  1  1  1
                            with an offset of   0.000  0.000  0.000
                       Number of kpoints used =             1
 
                           -------------------------------
                               Symmetry and Constraints
                           -------------------------------
 
                      Maximum deviation from symmetry =  0.00000         ANG
 
                      Number of symmetry operations   =           1
                      Number of ionic constraints     =           3
                      Point group of crystal =     1: C1, 1, 1
                      Space group of crystal =     1: P1, P 1
 
             Set iprint > 1 for details on symmetry rotations/translations
 
                         Centre of mass is constrained
             Set iprint > 1 for details of linear ionic constraints
 
                         Number of cell constraints= 6
                         Cell constraints are:  0 0 0 0 0 0
 
                         External pressure/stress (GPa)
                          0.00000   0.00000   0.00000
                                    0.00000   0.00000
                                              0.00000
  
+---------------- MEMORY AND SCRATCH DISK ESTIMATES PER PROCESS --------------+
|                                                     Memory          Disk    |
| Baseline code, static data and system overhead      622.0 MB         0.0 MB |
| BLAS internal memory storage                          0.0 MB         0.0 MB |
| Model and support data                              704.5 MB         0.0 MB |
| Electronic energy minimisation requirements         160.2 MB         0.0 MB |
| Force calculation requirements                        5.4 MB         0.0 MB |
|                                               ----------------------------- |
| Approx. total storage required per process         1486.7 MB         0.0 MB |
|                                                                             |
| Requirements will fluctuate during execution and may exceed these estimates |
+-----------------------------------------------------------------------------+
Calculating total energy with cut-off of  900.000 eV.
------------------------------------------------------------------------ <-- SCF
SCF loop      Energy           Fermi           Energy gain       Timer   <-- SCF
                               energy          per atom          (sec)   <-- SCF
------------------------------------------------------------------------ <-- SCF
Initial  -2.22649772E+005  0.00000000E+000                        16.22  <-- SCF
      1  -2.67438283E+005  7.08805122E+000   1.75641223E+002      59.46  <-- SCF
      2  -2.74420629E+005  3.66522411E+000   2.73817465E+001     100.33  <-- SCF
      3  -2.75144770E+005  3.55831932E+000   2.83976873E+000     145.49  <-- SCF
      4  -2.75206481E+005  3.68667101E+000   2.42003076E-001     184.58  <-- SCF
      5  -2.75594456E+005  6.75055698E+000   1.52147070E+000     233.23  <-- SCF
      6  -2.75297320E+005  5.56046882E+000  -1.16523784E+000     289.41  <-- SCF
      7  -2.75196114E+005  4.66159288E+000  -3.96885697E-001     338.53  <-- SCF
      8  -2.75174508E+005  4.35890887E+000  -8.47302999E-002     391.22  <-- SCF
      9  -2.75171873E+005  4.37044681E+000  -1.03334271E-002     438.52  <-- SCF
     10  -2.75183509E+005  4.48877493E+000   4.56304037E-002     488.11  <-- SCF
     11  -2.75169358E+005  4.35290342E+000  -5.54947253E-002     536.54  <-- SCF
     12  -2.75166802E+005  4.32986650E+000  -1.00229015E-002     583.92  <-- SCF
     13  -2.75167490E+005  4.33434220E+000   2.69924395E-003     632.85  <-- SCF
     14  -2.75166733E+005  4.33624917E+000  -2.96752762E-003     680.10  <-- SCF
     15  -2.75166276E+005  4.33806933E+000  -1.79409991E-003     726.62  <-- SCF
     16  -2.75166281E+005  4.33681326E+000   1.93258166E-005     775.81  <-- SCF
     17  -2.75166306E+005  4.34091916E+000   9.75037619E-005     824.42  <-- SCF
     18  -2.75166197E+005  4.34025407E+000  -4.26236252E-004     872.92  <-- SCF
     19  -2.75166219E+005  4.34032721E+000   8.63694951E-005     920.69  <-- SCF
     20  -2.75166225E+005  4.34184173E+000   2.26666915E-005     968.09  <-- SCF
     21  -2.75166184E+005  4.34186069E+000  -1.57830767E-004    1014.99  <-- SCF
     22  -2.75166183E+005  4.34205757E+000  -4.19162049E-006    1063.02  <-- SCF
     23  -2.75166187E+005  4.34180164E+000   1.49587471E-005    1110.10  <-- SCF
     24  -2.75166182E+005  4.34220362E+000  -2.08519629E-005    1155.52  <-- SCF
     25  -2.75166181E+005  4.34218087E+000  -2.32998180E-006    1190.92  <-- SCF
     26  -2.75166181E+005  4.34215465E+000   3.98594730E-007    1223.54  <-- SCF
     27  -2.75166181E+005  4.34231243E+000   1.09176316E-007    1255.93  <-- SCF
------------------------------------------------------------------------ <-- SCF
 
Final energy, E             =  -275160.9830895     eV
Final free energy (E-TS)    =  -275166.1813823     eV
(energies not corrected for finite basis set)
 
NB est. 0K energy (E-0.5TS)      =  -275163.5822359     eV
 

Writing analysis data to castep.castep_bin

Writing model to castep.check
 
+---------------- MEMORY AND SCRATCH DISK ESTIMATES PER PROCESS --------------+
|                                                     Memory          Disk    |
| Model and support data                              714.5 MB         0.0 MB |
| Electronic energy minimisation requirements         160.2 MB         0.0 MB |
| Geometry minimisation requirements                  197.6 MB         0.0 MB |
|                                               ----------------------------- |
| Approx. total storage required per process         1072.3 MB         0.0 MB |
|                                                                             |
| Requirements will fluctuate during execution and may exceed these estimates |
+-----------------------------------------------------------------------------+
 
 
 ************************************** Forces **************************************
 *                                                                                  *
 *                           Cartesian components (eV/A)                            *
 * -------------------------------------------------------------------------------- *
 *                         x                    y                    z              *
 *                                                                                  *
 * Al              1     -0.43148              0.00938              0.22510         *
 * Al              2     -0.06173              0.05461              0.01979         *
 * Al              3      0.07549             -0.06052             -0.17280         *
 * Al              4     -0.18182             -0.03213             -0.16776         *
 * Al              5      0.15209              0.15012              0.03882         *
 * Al              6     -0.03831              0.15842              0.18305         *
 * Al              7      0.04739              0.05924             -0.19556         *
 * Al              8     -0.11731              0.02617              0.07805         *
 * Al              9      0.02958              0.01848              0.27331         *
 * Al             10      0.03278             -0.15281             -0.06712         *
 * Al             11      0.01164              0.05410              0.01653         *
 * Al             12      0.00341             -0.11909              0.09879         *
 * Al             13      0.05874              0.07471              0.05363         *
 * Al             14     -0.17152             -0.08180              0.06630         *
 * Al             15     -0.07946              0.01765             -0.00368         *
 * Al             16     -0.10065              0.08042              0.11812         *
 * Al             17      0.17742             -0.14010             -0.01289         *
 * Al             18     -0.04954              0.07501              0.23305         *
 * Al             19      0.12460             -0.13533             -0.06186         *
 * Al             20     -0.14347             -0.22808             -0.07522         *
 * Al             21      0.02619             -0.00147              0.03203         *
 * Al             22     -0.00647              0.09390              0.04085         *
 * Al             23      0.08714              0.16610              0.01905         *
 * Al             24      0.07495              0.13020             -0.23015         *
 * Al             25      0.08488              0.26937             -0.05913         *
 * Al             26     -0.23330              0.35840              0.13565         *
 * Al             27      0.00410             -0.03889             -0.02238         *
 * Al             28     -0.23542             -0.18602             -0.37191         *
 * Al             29     -0.02109             -0.14807             -0.02142         *
 * Al             30     -0.47257              0.09685             -0.11819         *
 * Al             31      0.21043              0.09784             -0.02937         *
 * Al             32     -0.35011              0.44516              0.17310         *
 * Al             33     -0.30136             -0.21735             -0.08185         *
 * Al             34      0.06603             -0.15495             -0.06895         *
 * Al             35     -0.06491              0.09244              0.04381         *
 * Al             36      0.22716             -0.01465              0.50251         *
 * Al             37     -0.23416              0.02354             -0.03966         *
 * Al             38     -0.02635              0.06187             -0.01405         *
 * Al             39      0.03388             -0.06123              0.14366         *
 * Al             40     -0.14014             -0.07160              0.03161         *
 * Al             41     -0.00056             -0.00367              0.05269         *
 * Al             42      0.14956             -0.10153             -0.02876         *
 * Al             43      0.11440             -0.00786              0.13913         *
 * Al             44     -0.23817              0.23590             -0.06635         *
 * Al             45     -0.18240             -0.09148              0.01112         *
 * Al             46      0.07165              0.16554              0.21663         *
 * Al             47     -0.09713              0.27333              0.03219         *
 * Al             48     -0.00620             -0.10362              0.03611         *
 * Al             49     -0.24343             -0.25488             -0.32416         *
 * Al             50     -0.07941              0.18554             -0.00993         *
 * Al             51     -0.00988              0.04732             -0.09406         *
 * Al             52     -0.00748              0.07523              0.11677         *
 * Al             53     -0.00850              0.02741             -0.16934         *
 * Al             54      0.07996              0.01358             -0.24259         *
 * Al             55     -0.07549             -0.04979              0.06987         *
 * Al             56     -0.26047             -0.09691             -0.06765         *
 * Al             57     -0.13298             -0.01758              0.25894         *
 * Al             58     -0.24067              0.03765              0.12643         *
 * Al             59     -0.23103              0.02948              0.05582         *
 * Al             60      0.06506             -0.33509             -0.22911         *
 * Ni              1      0.02720             -0.01759             -0.10474         *
 * Ni              2      0.25342              0.10078              0.04594         *
 * Ni              3      0.70104             -0.04176             -0.21298         *
 * Ni              4     -0.12467              0.20961             -0.07178         *
 * Ni              5      0.06847              0.01013             -0.16126         *
 * Ni              6      0.26578             -0.03713              0.11505         *
 * Ni              7      0.18697             -0.02101             -0.06323         *
 * Ni              8      0.35330             -0.07446              0.28028         *
 * Ni              9      0.49841             -0.41855             -0.00719         *
 * Ni             10      0.19538             -0.06332             -0.18282         *
 * Ni             11      0.14602              0.07785              0.13681         *
 * Ni             12      0.24338              0.42239              0.00279         *
 * Ni             13     -0.04150             -0.00303              0.01810         *
 * Ni             14      0.03112             -0.07192              0.08314         *
 * Ni             15      0.21436             -0.12873              0.13327         *
 * Ni             16      0.25526              0.02312             -0.20855         *
 * Ni             17      0.78785             -0.27010              0.10510         *
 * Ni             18      0.88789              0.10575             -0.04756         *
 * Ni             19      0.35123             -0.08820             -0.12748         *
 * Ni             20      0.21264             -0.20561             -0.29522         *
 * Ni             21      0.09545              0.17312              0.17999         *
 * Ni             22      0.21961              0.05774              0.13236         *
 * Ni             23      0.21491             -0.21603              0.05600         *
 * Ni             24      0.25596             -0.06592              0.00299         *
 * Ni             25      0.79317              0.11157              0.01187         *
 * Ni             26      0.81683              0.09606              0.07512         *
 * Ni             27     -0.19980              0.11641              0.14883         *
 * Ni             28      0.15016              0.00205              0.08506         *
 * Ni             29      0.09614             -0.10452              0.07520         *
 * Ni             30      0.25864              0.02414             -0.25157         *
 * Ni             31      0.56239             -0.25672              0.09061         *
 * Ni             32      0.84538             -0.07485             -0.09983         *
 * Ni             33      0.04208              0.03143              0.10468         *
 * Ni             34     -0.06509             -0.03232             -0.02104         *
 * Ni             35     -0.08598              0.08511              0.09590         *
 * Ni             36      0.11223             -0.14373              0.05163         *
 * Ni             37     -0.14779             -0.00564             -0.11961         *
 * Ni             38     -0.00041              0.01954              0.18445         *
 * Ni             39     -0.26539             -0.01077             -0.00022         *
 * Ni             40     -0.03431              0.03746             -0.07710         *
 * Ni             41     -0.06100             -0.12957              0.09626         *
 * Ni             42      0.07809             -0.13946              0.11515         *
 * Ni             43      0.00992              0.23034             -0.05823         *
 * Ni             44      0.02166             -0.23393              0.11541         *
 * Ni             45      0.03548              0.15362              0.24371         *
 * Ni             46     -0.30486              0.03233              0.18370         *
 * Ni             47     -0.08634             -0.06777              0.14428         *
 * Ni             48     -0.08794              0.07470             -0.24835         *
 * Ni             49     -0.13029             -0.07869              0.08563         *
 * Ni             50      0.12419             -0.05242              0.05765         *
 * Ni             51      0.09085             -0.06799              0.21816         *
 * Ni             52     -0.05844              0.08137             -0.12349         *
 * Ni             53      0.05432              0.06226             -0.04304         *
 * Ni             54      0.07642             -0.39805              0.05274         *
 * Ni             55     -0.00047             -0.00496             -0.01963         *
 * Ni             56      0.10344             -0.10106              0.08858         *
 * Ni             57     -0.25534             -0.03489              0.07824         *
 * Ni             58      0.06971              0.00041             -0.07896         *
 * Ni             59      0.05802              0.06396              0.22984         *
 * Ni             60     -0.05886             -0.00102             -0.06481         *
 * Ni             61     -0.03474              0.03902              0.19230         *
 * Ni             62      0.02294             -0.04356              0.02511         *
 * Ni             63      0.02921             -0.01077              0.12207         *
 * Ni             64      0.00211             -0.16410             -0.09145         *
 * Ni             65      0.19110             -0.06768              0.05433         *
 * Ni             66     -0.12372              0.08200              0.00265         *
 * Ni             67     -0.02889             -0.10837              0.11464         *
 * Ni             68     -0.17192              0.20767             -0.03904         *
 * Ni             69      0.13922              0.03882              0.10150         *
 * Ni             70      0.00024             -0.03094              0.15572         *
 * Ni             71      0.22833              0.11423              0.13848         *
 * Ni             72      0.02626              0.06648             -0.14473         *
 * Ni             73      0.02484             -0.04377              0.14291         *
 * Ni             74      0.24337              0.26902              0.01457         *
 * Ni             75     -0.08755              0.10305              0.20602         *
 * Ni             76      0.22013             -0.09199             -0.03655         *
 * Ni             77     -0.17076              0.17386             -0.03347         *
 * Ni             78     -0.27559             -0.04235              0.09730         *
 * Ni             79     -0.08224              0.05550             -0.14892         *
 * Ni             80     -0.21793             -0.06726             -0.26717         *
 * Ni             81      0.12078             -0.00751             -0.08105         *
 * Ni             82      0.22255             -0.00473              0.24709         *
 * Ni             83      0.09619             -0.05354              0.09701         *
 * Ni             84      0.06992              0.06416              0.13321         *
 * Ni             85     -0.11969              0.12724              0.02474         *
 * Ni             86      0.18774              0.08518             -0.15214         *
 * Ni             87     -0.02762              0.04473             -0.08271         *
 * Ni             88     -0.49336              0.06008             -0.00442         *
 * Ni             89     -0.23037              0.01892             -0.32761         *
 * Ni             90     -0.10978              0.02732              0.14438         *
 * Ni             91     -0.03818             -0.02382             -0.07348         *
 * Ni             92      0.03820             -0.01295              0.00970         *
 * Ni             93     -0.04540             -0.07501             -0.00938         *
 * Ni             94     -0.17221              0.00118              0.09433         *
 * Ni             95      0.02220              0.11691              0.02142         *
 * Ni             96      0.02215             -0.07011              0.01958         *
 * Ni             97     -0.21057              0.12020             -0.12346         *
 * Ni             98      0.08519              0.05472              0.00477         *
 * Ni             99     -0.12984             -0.00494             -0.02981         *
 * Ni            100      0.16132             -0.00314             -0.27885         *
 * Ni            101     -0.26617              0.06334              0.12370         *
 * Ni            102      0.21316              0.02467             -0.09963         *
 * Ni            103     -0.21547             -0.13151              0.21704         *
 * Ni            104     -0.28030              0.11583              0.10820         *
 * Ni            105     -0.13368             -0.01009             -0.07547         *
 * Ni            106     -0.02246             -0.03747             -0.07776         *
 * Ni            107     -0.14265             -0.02999             -0.12489         *
 * Ni            108     -0.06251             -0.21209             -0.13612         *
 * Ni            109      0.24404             -0.03030             -0.03743         *
 * Ni            110      0.21295             -0.16905             -0.12769         *
 * Ni            111     -0.11294              0.07123              0.00637         *
 * Ni            112      0.14348             -0.05914             -0.21005         *
 * Ni            113     -0.00933              0.07151              0.16426         *
 * Ni            114     -0.24062             -0.00867              0.09758         *
 * Ni            115     -0.10358              0.08491              0.11795         *
 * Ni            116     -0.02715              0.01358              0.09879         *
 * Ni            117      0.25795              0.08980             -0.09349         *
 * Ni            118     -0.12541              0.22771             -0.20125         *
 * Ni            119     -0.09960             -0.14522             -0.03905         *
 * Ni            120      0.04307              0.00657              0.11810         *
 * Ni            121      0.00487              0.08057             -0.20438         *
 * Ni            122     -0.07070             -0.05057              0.08394         *
 * Ni            123     -0.12748              0.00072             -0.02767         *
 * Ni            124     -0.08908              0.04879             -0.18872         *
 * Ni            125     -0.02874             -0.08951             -0.10226         *
 * Ni            126      0.00128              0.18873             -0.10750         *
 * Ni            127     -0.67585              0.13996             -0.05816         *
 * Ni            128      0.05058              0.04728              0.35864         *
 * Ni            129     -0.10433             -0.18193             -0.11522         *
 * Ni            130     -0.04054              0.01794             -0.05136         *
 * Ni            131     -0.09459             -0.29083             -0.15342         *
 * Ni            132      0.31538              0.00200             -0.13326         *
 * Ni            133     -0.10058              0.10095             -0.27593         *
 * Ni            134      0.14963              0.01603             -0.01854         *
 * Ni            135     -0.50761              0.04289             -0.09150         *
 * Ni            136     -0.02851             -0.02168              0.10368         *
 * Ni            137     -0.15787              0.11719              0.07371         *
 * Ni            138      0.04082              0.14516             -0.00522         *
 * Ni            139      0.13208             -0.10724              0.13573         *
 * Ni            140     -0.00535              0.03529             -0.16091         *
 * Ni            141     -0.23311              0.12110              0.21574         *
 * Ni            142      0.06266              0.07157             -0.16119         *
 * Ni            143      0.11460              0.23658             -0.12170         *
 * Ni            144     -0.04272             -0.12439             -0.06901         *
 * Ni            145      0.13990              0.16560             -0.16727         *
 * Ni            146     -0.07058              0.11007             -0.16132         *
 * Ni            147     -0.09045             -0.00017             -0.08115         *
 * Ni            148      0.27054             -0.05616              0.04085         *
 * Ni            149      0.09637             -0.06643              0.00090         *
 * Ni            150     -0.08204              0.07214             -0.00579         *
 * Ni            151      0.06403              0.05363             -0.30591         *
 * Ni            152     -0.30512             -0.26448              0.07718         *
 * Ni            153      0.12185              0.08548             -0.24288         *
 * Ni            154     -0.08674             -0.03265              0.02629         *
 * Ni            155      0.08111             -0.14122              0.02318         *
 * Ni            156     -0.13091             -0.03644              0.21056         *
 * Ni            157     -0.37828             -0.14213             -0.15287         *
 * Ni            158     -0.47145             -0.14512             -0.29572         *
 * Ni            159     -0.05745             -0.15499              0.18309         *
 * Ni            160     -0.00145              0.05322              0.08711         *
 * Ni            161      0.10075             -0.00878              0.11345         *
 * Ni            162      0.11662              0.00064              0.06530         *
 * Ni            163     -0.07175             -0.15617              0.02427         *
 * Ni            164      0.21751             -0.08132             -0.04260         *
 * Ni            165      0.15803             -0.08920             -0.11998         *
 * Ni            166      0.00007              0.19133             -0.17929         *
 * Ni            167     -0.19507             -0.09323              0.04820         *
 * Ni            168     -0.21401              0.00313              0.02618         *
 * Ni            169     -0.00013              0.06611              0.05331         *
 * Ni            170      0.09723              0.11071              0.15788         *
 * Ni            171     -0.31093              0.01423             -0.13164         *
 * Ni            172     -0.79690             -0.10134             -0.07896         *
 * Ni            173     -0.08089             -0.06380              0.02263         *
 * Ni            174     -0.06750             -0.07158             -0.19724         *
 * Ni            175      0.04048              0.02422             -0.04451         *
 * Ni            176     -0.19783             -0.20323             -0.12271         *
 * Ni            177      0.08510              0.08519             -0.01062         *
 * Ni            178      0.25693             -0.29184              0.07997         *
 * Ni            179      0.06200              0.08784             -0.14792         *
 * Ni            180      0.10442             -0.02670             -0.00626         *
 * Ni            181     -0.23846              0.17791              0.09212         *
 * Ni            182      0.23035             -0.04013              0.05873         *
 * Ni            183     -0.09319              0.08109             -0.04397         *
 * Ni            184      0.00148             -0.28760             -0.00724         *
 * Ni            185      0.00035             -0.02682              0.22638         *
 * Ni            186      0.02184             -0.01469              0.00883         *
 * Ni            187     -0.14319              0.13730              0.18625         *
 * Ni            188      0.07571             -0.15450              0.23529         *
 * Ni            189      0.01523             -0.03936             -0.12149         *
 * Ni            190     -0.11532              0.02460             -0.04265         *
 * Ni            191      0.06718              0.06196             -0.00505         *
 * Ni            192     -0.12259             -0.00370              0.04238         *
 * Ni            193     -0.28536              0.10863              0.15701         *
 * Ni            194     -0.24068              0.14227             -0.12393         *
 * Ni            195     -0.38790             -0.02945             -0.23511         *
 *                                                                                  *
 ************************************************************************************
 LBFGS: finished iteration     0 with enthalpy= -2.75166181E+005 eV
  
 +-----------+-----------------+-----------------+------------+-----+ <-- LBFGS
 | Parameter |      value      |    tolerance    |    units   | OK? | <-- LBFGS
 +-----------+-----------------+-----------------+------------+-----+ <-- LBFGS
 |  dE/ion   |   0.000000E+000 |   2.000000E-005 |         eV | No  | <-- LBFGS
 |  |F|max   |   8.954287E-001 |   5.000000E-002 |       eV/A | No  | <-- LBFGS
 |  |dR|max  |   0.000000E+000 |   1.000000E-003 |          A | No  | <-- LBFGS
 +-----------+-----------------+-----------------+------------+-----+ <-- LBFGS
  

================================================================================
 Starting LBFGS iteration          1 ...
================================================================================
  
 +------------+-------------+-------------+-----------------+ <-- min LBFGS
 |    Step    |   lambda    |   F.delta'  |    enthalpy     | <-- min LBFGS
 +------------+-------------+-------------+-----------------+ <-- min LBFGS
 |  previous  |    0.000000 |    2.440363 |  -275166.181382 | <-- min LBFGS
 +------------+-------------+-------------+-----------------+ <-- min LBFGS
  

--------------------------------------------------------------------------------
 LBFGS: starting iteration         1 with trial guess (lambda=  1.000000)
--------------------------------------------------------------------------------
 
                           -------------------------------
                                     Cell Contents
                           -------------------------------
 
            xxxxxxxxxxxxxxxxxxxxxxxxxxxxxxxxxxxxxxxxxxxxxxxxxxxxxxxxxxxxxxxxx
            x  Element         Atom        Fractional coordinates of atoms  x
            x                 Number           u          v          w      x
            x---------------------------------------------------------------x
            x  Al                1         0.946374   0.064229   0.936163   x
            x  Al                2         0.672493   0.939105   0.810505   x
            x  Al                3         0.809275   0.069770   0.809027   x
            x  Al                4         0.420155   0.056471   0.180962   x
            x  Al                5         0.440142   0.937334   0.810794   x
            x  Al                6         0.422312   0.698065   0.809046   x
            x  Al                7         0.559872   0.059884   0.057091   x
            x  Al                8         0.299474   0.944091   0.935044   x
            x  Al                9         0.940443   0.813557   0.939571   x
            x  Al               10         0.809871   0.816235   0.810628   x
            x  Al               11         0.556979   0.572115   0.065185   x
            x  Al               12         0.422600   0.560984   0.934242   x
            x  Al               13         0.182271   0.698433   0.808735   x
            x  Al               14         0.944159   0.310530   0.935238   x
            x  Al               15         0.688914   0.564828   0.928127   x
            x  Al               16         0.556640   0.314001   0.822586   x
            x  Al               17         0.181956   0.427573   0.810742   x
            x  Al               18         0.184677   0.562295   0.944476   x
            x  Al               19         0.815780   0.066656   0.569651   x
            x  Al               20         0.306712   0.937029   0.679489   x
            x  Al               21         0.176275   0.069034   0.685380   x
            x  Al               22         0.805801   0.687195   0.680000   x
            x  Al               23         0.562335   0.693376   0.678176   x
            x  Al               24         0.178399   0.698252   0.554489   x
            x  Al               25         0.944881   0.560205   0.687246   x
            x  Al               26         0.799431   0.441564   0.684898   x
            x  Al               27         0.559504   0.440040   0.680807   x
            x  Al               28         0.414715   0.563176   0.674818   x
            x  Al               29         0.189132   0.560154   0.674786   x
            x  Al               30         0.946458   0.309487   0.687370   x
            x  Al               31         0.934412   0.566349   0.929420   x
            x  Al               32         0.804114   0.445747   0.437485   x
            x  Al               33         0.800757   0.302193   0.561317   x
            x  Al               34         0.555573   0.183612   0.682600   x
            x  Al               35         0.308603   0.309996   0.572882   x
            x  Al               36         0.935847   0.938267   0.310308   x
            x  Al               37         0.804347   0.931821   0.183962   x
            x  Al               38         0.685879   0.061881   0.436448   x
            x  Al               39         0.558851   0.055858   0.305473   x
            x  Al               40         0.174945   0.058236   0.435741   x
            x  Al               41         0.687741   0.822169   0.444040   x
            x  Al               42         0.815809   0.684992   0.439608   x
            x  Al               43         0.559104   0.815227   0.312799   x
            x  Al               44         0.941955   0.444333   0.303299   x
            x  Al               45         0.430887   0.434606   0.312718   x
            x  Al               46         0.562291   0.572887   0.315585   x
            x  Al               47         0.301964   0.443978   0.442736   x
            x  Al               48         0.943889   0.306047   0.436899   x
            x  Al               49         0.802522   0.304963   0.304736   x
            x  Al               50         0.433386   0.196554   0.307894   x
            x  Al               51         0.305723   0.187198   0.437263   x
            x  Al               52         0.804752   0.066742   0.057941   x
            x  Al               53         0.808801   0.690755   0.186658   x
            x  Al               54         0.560799   0.810487   0.055522   x
            x  Al               55         0.425747   0.813094   0.190208   x
            x  Al               56         0.298462   0.807844   0.061418   x
            x  Al               57         0.801972   0.308896   0.064214   x
            x  Al               58         0.800137   0.308182   0.815129   x
            x  Al               59         0.939869   0.442455   0.071137   x
            x  Al               60         0.563574   0.432216   0.183620   x
            x  Ni                1         0.058354   0.189189   0.187102   x
            x  Ni                2         0.058150   0.313558   0.062569   x
            x  Ni                3         0.058867   0.438169   0.188307   x
            x  Ni                4         0.057962   0.562563   0.063183   x
            x  Ni                5         0.057193   0.687488   0.188680   x
            x  Ni                6         0.058163   0.813001   0.062570   x
            x  Ni                7         0.057348   0.938684   0.186135   x
            x  Ni                8         0.058105   0.064432   0.062627   x
            x  Ni                9         0.057337   0.188801   0.435472   x
            x  Ni               10         0.058808   0.313886   0.312099   x
            x  Ni               11         0.059027   0.437752   0.436486   x
            x  Ni               12         0.058493   0.562898   0.313025   x
            x  Ni               13         0.055512   0.689554   0.435136   x
            x  Ni               14         0.055785   0.813470   0.310391   x
            x  Ni               15         0.053508   0.938326   0.435002   x
            x  Ni               16         0.055951   0.063857   0.309990   x
            x  Ni               17         0.054306   0.188649   0.686081   x
            x  Ni               18         0.056359   0.312575   0.560960   x
            x  Ni               19         0.059578   0.437484   0.686499   x
            x  Ni               20         0.058675   0.564178   0.560965   x
            x  Ni               21         0.061716   0.688773   0.684955   x
            x  Ni               22         0.053797   0.815365   0.559912   x
            x  Ni               23         0.055105   0.940581   0.686157   x
            x  Ni               24         0.054288   0.064117   0.560670   x
            x  Ni               25         0.056902   0.188826   0.937938   x
            x  Ni               26         0.056215   0.311567   0.812275   x
            x  Ni               27         0.060864   0.437884   0.936820   x
            x  Ni               28         0.069342   0.563018   0.810098   x
            x  Ni               29         0.060678   0.687892   0.935580   x
            x  Ni               30         0.056418   0.815252   0.810987   x
            x  Ni               31         0.057639   0.939855   0.936366   x
            x  Ni               32         0.055256   0.065286   0.811679   x
            x  Ni               33         0.183329   0.313633   0.187233   x
            x  Ni               34         0.306697   0.189786   0.187051   x
            x  Ni               35         0.307765   0.312895   0.061438   x
            x  Ni               36         0.181403   0.189586   0.061856   x
            x  Ni               37         0.433206   0.314686   0.183776   x
            x  Ni               38         0.553660   0.183438   0.184146   x
            x  Ni               39         0.558110   0.313039   0.058229   x
            x  Ni               40         0.430827   0.186308   0.061802   x
            x  Ni               41         0.681190   0.309950   0.184267   x
            x  Ni               42         0.808041   0.184568   0.184292   x
            x  Ni               43         0.680016   0.185702   0.060011   x
            x  Ni               44         0.933322   0.312874   0.186480   x
            x  Ni               45         0.933064   0.567442   0.185488   x
            x  Ni               46         0.937040   0.188024   0.061957   x
            x  Ni               47         0.183242   0.563061   0.187503   x
            x  Ni               48         0.307874   0.438452   0.188366   x
            x  Ni               49         0.308624   0.564399   0.064848   x
            x  Ni               50         0.182526   0.437185   0.063465   x
            x  Ni               51         0.436352   0.562511   0.190307   x
            x  Ni               52         0.683021   0.442799   0.059903   x
            x  Ni               53         0.433480   0.440809   0.063112   x
            x  Ni               54         0.682179   0.567336   0.186730   x
            x  Ni               55         0.933135   0.689527   0.311907   x
            x  Ni               56         0.809123   0.564081   0.059168   x
            x  Ni               57         0.181633   0.811700   0.189034   x
            x  Ni               58         0.306165   0.687261   0.189904   x
            x  Ni               59         0.179160   0.687149   0.063199   x
            x  Ni               60         0.557823   0.694051   0.188126   x
            x  Ni               61         0.430147   0.690562   0.061643   x
            x  Ni               62         0.683219   0.812158   0.184753   x
            x  Ni               63         0.934685   0.687960   0.059623   x
            x  Ni               64         0.808289   0.813660   0.056925   x
            x  Ni               65         0.932144   0.814686   0.184520   x
            x  Ni               66         0.183214   0.064154   0.187322   x
            x  Ni               67         0.301855   0.935302   0.185303   x
            x  Ni               68         0.303122   0.063104   0.060080   x
            x  Ni               69         0.178869   0.938341   0.061324   x
            x  Ni               70         0.427688   0.933142   0.059373   x
            x  Ni               71         0.555463   0.933638   0.181466   x
            x  Ni               72         0.427636   0.813903   0.937177   x
            x  Ni               73         0.556045   0.936651   0.936774   x
            x  Ni               74         0.682310   0.059033   0.183610   x
            x  Ni               75         0.934403   0.940008   0.060239   x
            x  Ni               76         0.683951   0.936883   0.056875   x
            x  Ni               77         0.932718   0.059834   0.184231   x
            x  Ni               78         0.811112   0.941413   0.931834   x
            x  Ni               79         0.184811   0.312468   0.439193   x
            x  Ni               80         0.305930   0.314867   0.313643   x
            x  Ni               81         0.181533   0.188195   0.312953   x
            x  Ni               82         0.428833   0.313207   0.437860   x
            x  Ni               83         0.556487   0.186090   0.433373   x
            x  Ni               84         0.559067   0.313138   0.310661   x
            x  Ni               85         0.684904   0.310747   0.433740   x
            x  Ni               86         0.810560   0.185372   0.435008   x
            x  Ni               87         0.679757   0.182827   0.309748   x
            x  Ni               88         0.937000   0.186067   0.309402   x
            x  Ni               89         0.184027   0.565284   0.442536   x
            x  Ni               90         0.308224   0.562764   0.313797   x
            x  Ni               91         0.182651   0.439511   0.313597   x
            x  Ni               92         0.430886   0.563646   0.438424   x
            x  Ni               93         0.557682   0.439179   0.435180   x
            x  Ni               94         0.683335   0.566252   0.438162   x
            x  Ni               95         0.682185   0.438847   0.311100   x
            x  Ni               96         0.807348   0.564275   0.310884   x
            x  Ni               97         0.807096   0.438647   0.187119   x
            x  Ni               98         0.934960   0.560027   0.436986   x
            x  Ni               99         0.180612   0.817434   0.433657   x
            x  Ni              100         0.306570   0.687851   0.438640   x
            x  Ni              101         0.305899   0.813028   0.313518   x
            x  Ni              102         0.180657   0.687366   0.314627   x
            x  Ni              103         0.432556   0.816245   0.434333   x
            x  Ni              104         0.559684   0.692768   0.439089   x
            x  Ni              105         0.432560   0.689425   0.314463   x
            x  Ni              106         0.684232   0.937288   0.311857   x
            x  Ni              107         0.686699   0.694010   0.316880   x
[...]
             Al 8  -- Ni 70                  0.17        2.59711
            Ni 64  -- Ni 75                  0.01        2.59721
            Ni 106 -- Ni 116                 0.01        2.59730
            Ni 4   -- Ni 50                  0.04        2.59744
            Ni 165 -- Ni 180                 0.00        2.59796
            Ni 159 -- Ni 161                 0.05        2.59810
            Ni 167 -- Ni 170                 0.00        2.59819
            Ni 169 -- Ni 170                 0.02        2.59823
             Al 49 -- Ni 88                  0.19        2.59831
             Al 21 -- Ni 191                 0.17        2.59837
             Al 29 -- Ni 28                  0.16        2.59844
            Ni 187 -- Ni 189                -0.01        2.59860
             Al 53 -- Ni 107                 0.19        2.59868
            Ni 26  -- Ni 27                  0.03        2.59893
            Ni 154 -- Ni 169                 0.04        2.59894
             Al 60 -- Ni 54                  0.17        2.59896
             Al 35 -- Ni 82                  0.15        2.59911
            Ni 70  -- Ni 166                 0.09        2.59918
             Al 59 -- Ni 178                 0.18        2.59931
            Ni 145 -- Ni 156                 0.04        2.59938
            Ni 72  -- Ni 184                 0.07        2.59958
            Ni 141 -- Ni 156                 0.06        2.59998
            Ni 64  -- Ni 65                  0.02        2.60008
             Al 19 -- Ni 154                 0.18        2.60012
             Al 38 -- Ni 152                 0.17        2.60025
            Ni 42  -- Ni 87                  0.03        2.60028
             Al 49 -- Ni 95                  0.20        2.60047
            Ni 127 -- Ni 169                -0.04        2.60075
             Al 31 -- Ni 63                  0.18        2.60075
            Ni 18  -- Ni 135                 0.03        2.60119
            Ni 42  -- Ni 44                  0.01        2.60133
            Ni 83  -- Ni 85                  0.08        2.60136
            Ni 35  -- Ni 53                  0.12        2.60153
            Ni 119 -- Ni 129                 0.04        2.60157
            Ni 168 -- Ni 170                 0.03        2.60163
            Ni 59  -- Ni 182                 0.05        2.60166
             Al 34 -- Ni 123                 0.17        2.60187
            Ni 53  -- Ni 173                 0.10        2.60210
             Al 15 -- Ni 175                 0.20        2.60239
            Ni 25  -- Ni 172                 0.01        2.60256
             Al 11 -- Ni 53                  0.14        2.60265
            Ni 98  -- Ni 135                 0.09        2.60275
            Ni 29  -- Ni 189                 0.04        2.60280
            Ni 69  -- Ni 190                 0.05        2.60295
             Al 55 -- Ni 71                  0.16        2.60360
            Ni 86  -- Ni 127                -0.01        2.60383
             Al 54 -- Ni 71                  0.20        2.60390
            Ni 37  -- Ni 80                  0.00        2.60404
             Al 18 -- Ni 174                 0.19        2.60409
             Al 57 -- Ni 44                  0.18        2.60429
            Ni 174 -- Ni 182                -0.00        2.60448
            Ni 41  -- Ni 42                  0.02        2.60451
            Ni 134 -- Ni 136                 0.02        2.60460
            Ni 86  -- Ni 87                  0.06        2.60471
             Al 31 -- Ni 28                  0.20        2.60480
            Ni 137 -- Ni 139                -0.01        2.60480
            Ni 131 -- Ni 143                 0.05        2.60495
            Ni 130 -- Ni 131                 0.05        2.60502
            Ni 122 -- Ni 125                 0.04        2.60529
             Al 22 -- Ni 146                 0.16        2.60545
             Al 24 -- Ni 20                  0.20        2.60551
            Ni 71  -- Ni 106                 0.02        2.60552
            Ni 60  -- Ni 107                 0.05        2.60565
            Ni 82  -- Ni 83                  0.10        2.60574
            Ni 179 -- Ni 187                 0.06        2.60577
            Ni 120 -- Ni 122                 0.11        2.60581
            Ni 9   -- Ni 127                 0.03        2.60591
             Al 30 -- Ni 169                 0.17        2.60592
            Ni 39  -- Ni 185                 0.09        2.60594
            Ni 98  -- Ni 136                 0.02        2.60599
            Ni 98  -- Ni 147                 0.07        2.60615
            Ni 27  -- Ni 159                 0.09        2.60623
             Al 31 -- Ni 4                   0.15        2.60687
            Ni 163 -- Ni 176                 0.08        2.60690
            Ni 140 -- Ni 183                -0.01        2.60713
            Ni 167 -- Ni 168                 0.05        2.60740
            Ni 54  -- Ni 60                  0.07        2.60793
             Al 40 -- Ni 148                 0.16        2.60816
             Al 42 -- Ni 107                 0.18        2.60888
            Ni 20  -- Ni 21                 -0.03        2.60904
            Ni 55  -- Ni 98                  0.05        2.60925
             Al 20 -- Ni 191                 0.16        2.60942
            Ni 145 -- Ni 147                 0.01        2.60961
             Al 9  -- Ni 195                 0.17        2.60965
             Al 41 -- Ni 109                 0.17        2.60970
             Al 14 -- Ni 168                 0.16        2.61076
            Ni 131 -- Ni 145                -0.03        2.61082
             Al 9  -- Ni 187                 0.19        2.61093
            Ni 82  -- Ni 84                  0.03        2.61099
             Al 31 -- Ni 178                 0.21        2.61138
            Ni 73  -- Ni 193                 0.05        2.61143
            Ni 92  -- Ni 104                 0.11        2.61207
            Ni 85  -- Ni 126                 0.05        2.61217
            Ni 143 -- Ni 188                 0.03        2.61253
            Ni 144 -- Ni 179                 0.04        2.61273
            Ni 160 -- Ni 191                 0.11        2.61283
             Al 5  -- Ni 191                 0.16        2.61317
             Al 57 -- Ni 46                  0.18        2.61355
             Al 50 -- Al 51                  0.24        2.61386
            Ni 94  -- Ni 95                  0.02        2.61415
            Ni 122 -- Ni 132                 0.03        2.61421
             Al 7  -- Ni 40                  0.16        2.61433
             Al 26 -- Ni 171                 0.17        2.61438
            Ni 42  -- Ni 43                 -0.01        2.61520
            Ni 61  -- Ni 175                 0.02        2.61558
             Al 42 -- Ni 145                 0.16        2.61561
             Al 25 -- Ni 179                 0.18        2.61563
             Al 11 -- Ni 52                  0.15        2.61572
             Al 3  -- Ni 195                 0.15        2.61621
             Al 14 -- Ni 171                 0.16        2.61624
            Ni 174 -- Ni 176                 0.09        2.61627
            Ni 75  -- Ni 78                  0.04        2.61695
            Ni 29  -- Ni 30                  0.02        2.61768
            Ni 49  -- Ni 51                  0.14        2.61769
            Ni 52  -- Ni 178                 0.06        2.61789
            Ni 62  -- Ni 109                 0.05        2.61864
            Ni 94  -- Ni 96                  0.01        2.61875
             Al 52 -- Ni 77                  0.16        2.61876
             Al 32 -- Ni 85                  0.20        2.61904
            Ni 6   -- Ni 75                  0.07        2.61905
            Ni 120 -- Ni 121                 0.01        2.61931
            Ni 54  -- Ni 56                  0.11        2.62029
             Al 45 -- Ni 92                  0.15        2.62049
             Al 54 -- Ni 70                  0.17        2.62059
            Ni 130 -- Ni 134                 0.07        2.62074
            Ni 21  -- Ni 146                 0.09        2.62080
            Ni 67  -- Ni 111                 0.10        2.62133
            Ni 167 -- Ni 178                 0.04        2.62135
             Al 43 -- Al 55                  0.28        2.62194
            Ni 96  -- Ni 98                 -0.05        2.62270
             Al 39 -- Ni 83                  0.13        2.62289
             Al 56 -- Ni 70                  0.17        2.62299
            Ni 86  -- Ni 126                 0.03        2.62320
             Al 42 -- Ni 109                 0.17        2.62321
            Ni 15  -- Ni 16                  0.00        2.62324
             Al 20 -- Ni 192                 0.15        2.62327
            Ni 173 -- Ni 174                 0.01        2.62343
            Ni 157 -- Ni 169                 0.01        2.62355
            Ni 71  -- Ni 115                -0.06        2.62370
            Ni 51  -- Ni 58                  0.10        2.62438
            Ni 152 -- Ni 154                 0.05        2.62493
             Al 38 -- Al 39                  0.26        2.62506
            Ni 38  -- Ni 84                  0.07        2.62507
             Al 27 -- Ni 176                 0.15        2.62523
             Al 41 -- Ni 107                 0.16        2.62557
            Ni 11  -- Ni 135                 0.08        2.62558
            Ni 176 -- Ni 185                 0.03        2.62561
             Al 29 -- Ni 21                  0.14        2.62567
            Ni 175 -- Ni 177                 0.04        2.62596
            Ni 89  -- Ni 129                 0.16        2.62600
            Ni 143 -- Ni 184                 0.01        2.62606
            Ni 44  -- Ni 97                 -0.10        2.62628
            Ni 49  -- Ni 173                 0.01        2.62632
            Ni 67  -- Ni 68                  0.03        2.62681
             Al 56 -- Ni 72                  0.17        2.62715
             Al 52 -- Ni 75                  0.16        2.62835
            Ni 3   -- Ni 44                  0.00        2.62867
            Ni 167 -- Ni 185                 0.07        2.62962
             Al 50 -- Ni 113                 0.15        2.62969
             Al 31 -- Ni 56                  0.16        2.63116
            Ni 131 -- Ni 141                 0.01        2.63130
            Ni 73  -- Ni 184                 0.07        2.63159
             Al 40 -- Ni 81                  0.15        2.63177
            Ni 99  -- Ni 100                 0.06        2.63207
            Ni 27  -- Ni 171                 0.07        2.63251
            Ni 37  -- Ni 84                 -0.06        2.63275
            Ni 68  -- Ni 70                  0.04        2.63364
            Ni 126 -- Ni 165                 0.04        2.63380
             Al 8  -- Ni 72                  0.14        2.63428
             Al 26 -- Ni 135                 0.18        2.63429
            Ni 38  -- Ni 39                  0.10        2.63467
             Al 6  -- Ni 175                 0.14        2.63492
            Ni 126 -- Ni 169                 0.02        2.63512
             Al 41 -- Ni 104                 0.15        2.63559
             Al 6  -- Ni 174                 0.17        2.63580
            Ni 151 -- Ni 193                -0.01        2.63585
             Al 37 -- Ni 77                  0.14        2.63595
            Ni 114 -- Ni 156                 0.01        2.63824
             Al 19 -- Ni 86                  0.16        2.63989
            Ni 59  -- Ni 181                 0.04        2.64049
             Al 12 -- Ni 133                 0.16        2.64079
             Al 25 -- Ni 136                 0.16        2.64097
             Al 60 -- Ni 51                  0.15        2.64107
             Al 55 -- Al 56                  0.25        2.64208
            Ni 41  -- Ni 97                  0.01        2.64210
            Ni 60  -- Ni 177                 0.01        2.64214
            Ni 138 -- Ni 174                -0.03        2.64320
             Al 10 -- Al 22                  0.23        2.64415
             Al 41 -- Al 43                  0.25        2.64426
             Al 33 -- Ni 135                 0.13        2.64464
            Ni 128 -- Ni 132                 0.15        2.64498
            Ni 138 -- Ni 183                 0.03        2.64598
            Ni 41  -- Ni 95                  0.03        2.64694
            Ni 72  -- Ni 175                 0.04        2.64922
            Ni 94  -- Ni 136                 0.04        2.64999
            Ni 133 -- Ni 188                 0.05        2.65118
             Al 31 -- Ni 171                 0.19        2.65130
            Ni 39  -- Ni 52                  0.03        2.65139
            Ni 19  -- Ni 135                 0.10        2.65264
            Ni 163 -- Ni 185                 0.08        2.65342
             Al 58 -- Ni 172                 0.14        2.65361
            Ni 179 -- Ni 180                 0.06        2.65414
            Ni 54  -- Ni 107                 0.05        2.65505
             Al 58 -- Ni 171                 0.13        2.65506
            Ni 45  -- Ni 97                  0.02        2.65559
             Al 25 -- Ni 135                 0.17        2.65620
             Al 16 -- Ni 165                 0.17        2.65652
             Al 45 -- Al 47                  0.22        2.65660
             Al 35 -- Al 51                  0.24        2.65667
            Ni 51  -- Ni 61                  0.07        2.65829
            Ni 175 -- Ni 186                 0.05        2.65835
             Al 50 -- Ni 111                 0.15        2.66006
             Al 35 -- Ni 79                  0.11        2.66096
             Al 4  -- Ni 38                  0.16        2.66166
             Al 22 -- Ni 189                 0.14        2.66177
             Al 9  -- Ni 189                 0.17        2.66234
             Al 4  -- Ni 71                  0.14        2.66268
             Al 2  -- Ni 155                 0.13        2.66404
             Al 2  -- Ni 78                  0.15        2.66628
             Al 7  -- Ni 70                  0.15        2.66765
             Al 9  -- Ni 78                  0.16        2.66782
            Ni 182 -- Ni 183                 0.03        2.66853
            Ni 3   -- Ni 45                  0.00        2.67247
             Al 11 -- Al 60                  0.22        2.67269
            Ni 151 -- Ni 184                -0.00        2.67416
             Al 40 -- Al 51                  0.22        2.67487
             Al 1  -- Ni 78                  0.14        2.67511
             Al 12 -- Ni 61                  0.15        2.67576
             Al 20 -- Al 21                  0.23        2.67821
             Al 1  -- Ni 168                 0.14        2.67954
            Ni 41  -- Ni 52                  0.03        2.68201
             Al 19 -- Al 38                  0.24        2.68371
             Al 15 -- Ni 178                 0.17        2.68381
             Al 24 -- Al 29                  0.29        2.68405
             Al 8  -- Al 56                  0.22        2.68752
             Al 37 -- Al 52                  0.22        2.68813
             Al 9  -- Al 10                  0.23        2.68898
            Ni 133 -- Ni 185                 0.08        2.69177
             Al 6  -- Al 12                  0.23        2.70101
            Ni 28  -- Ni 189                 0.09        2.70262
             Al 1  -- Al 52                  0.23        2.70561
             Al 45 -- Al 60                  0.21        2.70979
             Al 36 -- Al 37                  0.22        2.71014
             Al 2  -- Al 10                  0.21        2.71077
             Al 26 -- Al 58                  0.24        2.71257
             Al 47 -- Ni 82                  0.12        2.71324
            Ni 133 -- Ni 180                 0.08        2.71540
             Al 35 -- Al 47                  0.25        2.71777
             Al 4  -- Al 7                   0.21        2.71835
             Al 4  -- Al 39                  0.22        2.72053
            Ni 20  -- Ni 135                 0.09        2.72497
             Al 11 -- Al 12                  0.20        2.72649
             Al 1  -- Al 3                   0.22        2.72989
             Al 5  -- Al 20                  0.20        2.73356
             Al 28 -- Ni 176                 0.10        2.73746
             Al 47 -- Ni 80                  0.10        2.73789
             Al 14 -- Al 58                  0.20        2.73826
            Ni 178 -- Ni 180                 0.07        2.73846
             Al 2  -- Al 3                   0.20        2.73984
             Al 5  -- Al 8                   0.20        2.74242
             Al 16 -- Al 27                  0.20        2.74346
             Al 41 -- Al 42                  0.20        2.74734
             Al 28 -- Ni 133                 0.11        2.75125
            Ni 178 -- Ni 179                 0.07        2.75258
             Al 39 -- Al 50                  0.17        2.75408
             Al 26 -- Al 33                  0.20        2.76243
            Ni 28  -- Ni 171                 0.08        2.76734
             Al 22 -- Al 25                  0.18        2.76801
             Al 17 -- Al 29                  0.17        2.76931
             Al 11 -- Al 15                  0.18        2.76965
             Al 25 -- Al 26                  0.17        2.76980
             Al 31 -- Al 59                  0.18        2.77375
             Al 4  -- Al 50                  0.17        2.77580
             Al 17 -- Al 18                  0.19        2.77743
             Al 32 -- Al 33                  0.18        2.78028
             Al 57 -- Al 59                  0.17        2.78536
             Al 54 -- Al 55                  0.18        2.78800
             Al 13 -- Al 18                  0.18        2.78940
             Al 6  -- Al 23                  0.18        2.79365
             Al 33 -- Al 48                  0.18        2.79710
             Al 14 -- Al 59                  0.17        2.80206
             Al 45 -- Al 46                  0.16        2.80647
             Al 27 -- Al 28                  0.15        2.80680
             Al 15 -- Ni 133                 0.10        2.80882
             Al 16 -- Al 34                  0.17        2.81376
             Al 30 -- Al 33                  0.16        2.81775
             Al 14 -- Al 57                  0.16        2.82720
             Al 13 -- Al 29                  0.13        2.83767
             Al 44 -- Al 48                  0.16        2.84630
             Al 30 -- Al 58                  0.16        2.84998
             Al 32 -- Al 44                  0.17        2.85195
             Al 6  -- Al 28                  0.14        2.85520
             Al 46 -- Al 60                  0.14        2.86893
             Al 48 -- Al 49                  0.16        2.89070
             Al 32 -- Al 49                  0.16        2.89560
             Al 26 -- Al 30                  0.11        2.90899
             Al 44 -- Al 49                  0.13        2.91214
             Al 23 -- Al 28                  0.09        2.94840
======================================================================
 

Writing analysis data to castep.castep_bin

Writing model to castep.check
 
 A BibTeX formatted list of references used in this run has been written to 
 castep.bib
 
Initialisation time =     12.06 s
Calculation time    =  10951.07 s
Finalisation time   =      6.54 s
Total time          =  10969.67 s
Peak Memory Use     = 2183168 kB
  
Overall parallel efficiency rating: Good (71%)                                  
  
Data was distributed by:-
G-vector (48-way); efficiency rating: Good (72%)                                
