 +-------------------------------------------------+
 |                                                 |
 |      CCC   AA    SSS  TTTTT  EEEEE  PPPP        |
 |     C     A  A  S       T    E      P   P       |
 |     C     AAAA   SS     T    EEE    PPPP        |
 |     C     A  A     S    T    E      P           |
 |      CCC  A  A  SSS     T    EEEEE  P           |
 |                                                 |
 +-------------------------------------------------+
 |                                                 |
 | Welcome to Academic Release CASTEP version 22.11|
 | Ab Initio Total Energy Program                  |
 |                                                 |
 | Authors:                                        |
 | M. Segall, M. Probert, C. Pickard, P. Hasnip,   |
 | S. Clark, K. Refson, J. R. Yates, M. Payne      |
 |                                                 |
 | Contributors:                                   |
 | P. Lindan, P. Haynes, J. White, V. Milman,      |
 | N. Govind, M. Gibson, P. Tulip, V. Cocula,      |
 | B. Montanari, D. Quigley, M. Glover,            |
 | L. Bernasconi, A. Perlov, M. Plummer,           |
 | E. McNellis, J. Meyer, J. Gale, D. Jochym       |
 | J. Aarons, B. Walker, R. Gillen, D. Jones       |
 | T. Green, I. J. Bush, C. J. Armstrong,          |
 | E. J. Higgins, E. L. Brown, M. S. McFly,        |
 | J. Wilkins, B-C. Shih, P. J. P. Byrne,          |
 | R. J. Maurer, J. C. Womack, J. Dziedzic,        |
 | A. Bartok-Partay, L. LeBlanc, T. K. Stenczel,   |
 | J. Kermode, S. Sturniolo, B. Shi, B. Durham     |
 | M. Evans, M. J. Smith                           |
 |                                                 |
 | Copyright (c) 2000 - 2021                       |
 |                                                 |
 |     Distributed under license from Cambridge    |
 |     Enterprise for academic use only.           |
 |                                                 |
 | Please cite                                     |
 |                                                 |
 |     "First principles methods using CASTEP"     |
 |                                                 |
 |         Zeitschrift fuer Kristallographie       |
 |           220(5-6) pp. 567-570 (2005)           |
 |                                                 |
 | S. J. Clark, M. D. Segall, C. J. Pickard,       |
 | P. J. Hasnip, M. J. Probert, K. Refson,         |
 | M. C. Payne                                     |
 |                                                 |
 |       in all publications arising from          |
 |              your use of CASTEP                 |
 |                                                 |
 +-------------------------------------------------+
 |                                                 |
 |              http://www.castep.org              |
 |                                                 |
 +-------------------------------------------------+
 
 
 
 Compiled for linux_x86_64_ifort on Wed, 18 Jan 2023 15:42:19 +0000
 from code version b807d1bba+  Castep221_branch  Wed Sep 14 11:18:35 2022 +0100
 Compiler: Intel Fortran 19.0.5.281; Optimisation: fast
 MATHLIBS: Intel MKL(2019.0.5) (LAPACK version 3.7.0)
 FFT Lib : mkl
 Fundamental constants values: CODATA 2014
 
 Run started: Thu, 27 Apr 2023 01:10:29 +0100
 
 Atomic calculation performed for Al: 1s2 2s2 2p6 3s2 3p1
 
 Converged in 52 iterations to an ae energy of -6606.982 eV
 
   ============================================================                
   | Pseudopotential Report - Date of generation 27-04-2023   |                
   ------------------------------------------------------------                
   | Element: Al Ionic charge:  3.00 Level of theory: RPBE    |                
   | Atomic Solver: Koelling-Harmon                           |                
   |                                                          |                
   |               Reference Electronic Structure             |                
   |         Orbital         Occupation         Energy        |                
   |            3s              2.000           -0.284        |                
   |            3p              1.000           -0.100        |                
   |                                                          |                
   |                 Pseudopotential Definition               |                
   |        Beta     l      e      Rc     scheme   norm       |                
   |          1      0   -0.284   2.192     qc      0         |                
   |          2      0    0.250   2.192     qc      0         |                
   |          3      1   -0.100   2.192     qc      0         |                
   |          4      1    0.250   2.192     qc      0         |                
   |          5      2    0.000   2.000     qc      0         |                
   |          6      2    0.250   2.000     qc      0         |                
   |         loc     3    0.000   2.192     pn      0         |                
   |                                                          |                
   | Augmentation charge Rinner = 1.398                       |                
   | Partial core correction Rc = 1.398                       |                
   ------------------------------------------------------------                
   | "3|2.2|2.2|1.4|4|5|5|30:31:32U2U2"                       |                
   ------------------------------------------------------------                
   |      Author: Chris J. Pickard, Cambridge University      |                
   ============================================================                
 
 Atomic calculation performed for Ni: 1s2 2s2 2p6 3s2 3p6 3d8 4s2
 
 Converged in 109 iterations to an ae energy of -41381.414 eV
 
   ============================================================                
   | Pseudopotential Report - Date of generation 27-04-2023   |                
   ------------------------------------------------------------                
   | Element: Ni Ionic charge: 10.00 Level of theory: RPBE    |                
   | Atomic Solver: Koelling-Harmon                           |                
   |                                                          |                
   |               Reference Electronic Structure             |                
   |         Orbital         Occupation         Energy        |                
   |            3d              8.000           -0.324        |                
   |            4s              2.000           -0.204        |                
   |                                                          |                
   |                 Pseudopotential Definition               |                
   |        Beta     l      e      Rc     scheme   norm       |                
   |          1      0   -0.204   2.401     qc      0         |                
   |          2      0    0.250   2.401     qc      0         |                
   |          3      1    0.000   2.401     qc      0         |                
   |          4      1    0.250   2.401     qc      0         |                
   |          5      2   -0.324   1.999     qc      0         |                
   |          6      2    0.250   1.999     qc      0         |                
   |         loc     3    0.000   2.401     pn      0         |                
   |                                                          |                
   | Augmentation charge Rinner = 1.001                       |                
   | Partial core correction Rc = 1.001                       |                
   ------------------------------------------------------------                
   | "3|2.4|2.4|1.0|8|9|10|40:41:32U2U2(qc=5.5)"              |                
   ------------------------------------------------------------                
   |      Author: Chris J. Pickard, Cambridge University      |                
   ============================================================                
 
 Pseudo atomic calculation performed for Al 3s2 3p1
 
 Converged in 13 iterations to a total energy of -107.6593 eV
 
 Pseudo atomic calculation performed for Ni 3d8 4s2
 
 Converged in 41 iterations to a total energy of -1369.7890 eV
 Calculation parallelised over 128 processes.
 Data is distributed by G-vector(128-way)

 ************************************ Title ************************************
 

 ***************************** General Parameters ******************************
  
 output verbosity                               : normal  (1)
 write checkpoint data to                       : castep.check
 type of calculation                            : geometry optimization
 stress calculation                             : off
 density difference calculation                 : off
 electron localisation func (ELF) calculation   : off
 Hirshfeld analysis                             : off
 polarisation (Berry phase) analysis            : off
 molecular orbital projected DOS                : off
 deltaSCF calculation                           : off
 unlimited duration calculation
 timing information                             : on
 memory usage estimate                          : on
 write extra output files                       : on
 write final potential to formatted file        : off
 write final density to formatted file          : off
 write BibTeX reference list                    : on
 write OTFG pseudopotential files               : on
 write electrostatic potential file             : on
 write bands file                               : on
 checkpoint writing                             : both castep_bin and check files
  
 output         length unit                     : A
 output           mass unit                     : amu
 output           time unit                     : ps
 output         charge unit                     : e
 output           spin unit                     : hbar/2
 output         energy unit                     : eV
 output          force unit                     : eV/A
 output       velocity unit                     : A/ps
 output       pressure unit                     : GPa
 output     inv_length unit                     : 1/A
 output      frequency unit                     : cm-1
 output force constant unit                     : eV/A**2
 output         volume unit                     : A**3
 output   IR intensity unit                     : (D/A)**2/amu
 output         dipole unit                     : D
 output         efield unit                     : eV/A/e
 output        entropy unit                     : J/mol/K
 output    efield chi2 unit                     : pm/V
  
 wavefunctions paging                           : none
 random number generator seed                   : randomised (11031165)
 data distribution                              : optimal for this architecture
 optimization strategy                          : maximize speed(+++)

 *********************** Exchange-Correlation Parameters ***********************
  
 using functional                               : revised Perdew Burke Ernzerhof
 relativistic treatment                         : Koelling-Harmon
 DFT+D: Semi-empirical dispersion correction    : off

 ************************* Pseudopotential Parameters **************************
  
 pseudopotential representation                 : reciprocal space
 <beta|phi> representation                      : reciprocal space
 spin-orbit coupling                            : off

 **************************** Basis Set Parameters *****************************
  
 plane wave basis set cut-off                   :   900.0000   eV
 size of standard grid                          :     1.7500
 size of   fine   gmax                          :    26.8966   1/A
 finite basis set correction                    : none

 **************************** Electronic Parameters ****************************
  
 number of  electrons                           :  2109.    
 net charge of system                           :  0.000    
 net spin   of system                           :  1.000    
 number of  up  spins                           :  1055.    
 number of down spins                           :  1054.    
 treating system as spin-polarized
 number of bands                                :       1167

 ********************* Electronic Minimization Parameters **********************
  
 Method: Treating system as metallic with density mixing treatment of electrons,
         and number of  SD  steps               :          1
         and number of  CG  steps               :          4
  
 total energy / atom convergence tol.           : 0.1000E-05   eV
 eigen-energy convergence tolerance             : 0.2185E-06   eV
 max force / atom convergence tol.              : ignored
 convergence tolerance window                   :          3   cycles
 max. number of SCF cycles                      :        200
 number of fixed-spin iterations                :         10
 smearing scheme                                : Gaussian
 smearing width                                 : 0.2000       eV
 Fermi energy convergence tolerance             : 0.2721E-13   eV
 periodic dipole correction                     : NONE
 periodically dump wavefunctions to             : castep.wvfn
 dump wavefunctions every                       :          1   SCF cycles

 ************************** Density Mixing Parameters **************************
  
 density-mixing scheme                          : Pulay
 max. length of mixing history                  :         20
 charge density mixing amplitude                : 0.8000    
   spin density mixing amplitude                :  2.000    
 cut-off energy for mixing                      :  900.0       eV

 *********************** Population Analysis Parameters ************************
  
 Population analysis with cutoff                :  3.000       A
 Population analysis output                     : summary and pdos components

 ********************** Geometry Optimization Parameters ***********************
  
 optimization method                            : LBFGS
 max. no. of LBFGS updates                      : unbounded
 variable cell method                           : fixed basis quality
 max. number of steps                           :         30
 estimated bulk modulus                         :  500.0       GPa
 estimated <frequency>                          :  1668.       cm-1
 geom line minimiser                            : on
 with line minimiser tolerance                  :     0.4000
  with spin fully able to relax for all steps
 total energy convergence tolerance             : 0.2000E-04   eV/atom
        max ionic |force| tolerance             : 0.5000E-01   eV/A
 max ionic |displacement| tolerance             : 0.1000E-02   A
   max |stress component| tolerance             : 0.1000       GPa
 convergence tolerance window                   :          2   steps
 backup results every                           :          5   steps
 write geom trajectory file                     : on

 *******************************************************************************
  
 
                           -------------------------------
                                      Unit Cell
                           -------------------------------
        Real Lattice(A)                      Reciprocal Lattice(1/A)
    14.4648280     0.0000000     0.0000000        0.434376773   0.000000000   0.000000000
     0.0000000    14.4648280     0.0000000        0.000000000   0.434376773   0.000000000
     0.0000000     0.0000000    14.4648280        0.000000000   0.000000000   0.434376773
 
                       Lattice parameters(A)       Cell Angles
                    a =     14.464828          alpha =   90.000000
                    b =     14.464828          beta  =   90.000000
                    c =     14.464828          gamma =   90.000000
 
                       Current cell volume =          3026.494030       A**3
                                   density =             4.285146   AMU/A**3
                                           =             7.115653     g/cm^3
 
                           -------------------------------
                                     Cell Contents
                           -------------------------------
                         Total number of ions in cell =  255
                      Total number of species in cell =    2
                        Max number of any one species =  192
 
            xxxxxxxxxxxxxxxxxxxxxxxxxxxxxxxxxxxxxxxxxxxxxxxxxxxxxxxxxxxx
            x  Element    Atom        Fractional coordinates of atoms  x
            x            Number           u          v          w      x
            x----------------------------------------------------------x
            x  Al           1         0.569806   0.308622   0.065059   x 
            x  Al           2         0.817951   0.309632   0.062664   x 
            x  Al           3         0.568881   0.558713   0.066468   x 
            x  Al           4         0.817350   0.558387   0.063172   x 
            x  Al           5         0.574858   0.809258   0.059671   x 
            x  Al           6         0.818744   0.807917   0.061957   x 
            x  Al           7         0.571825   0.059181   0.062782   x 
            x  Al           8         0.819553   0.059517   0.061548   x 
            x  Al           9         0.569823   0.306122   0.313163   x 
            x  Al          10         0.819184   0.308383   0.312560   x 
            x  Al          11         0.573384   0.555040   0.312598   x 
            x  Al          12         0.818113   0.558918   0.312634   x 
            x  Al          13         0.577649   0.814984   0.312704   x 
            x  Al          14         0.819651   0.808958   0.312393   x 
            x  Al          15         0.574715   0.057060   0.308743   x 
            x  Al          16         0.820454   0.058863   0.312169   x 
            x  Al          17         0.575831   0.302865   0.560424   x 
            x  Al          18         0.818652   0.309210   0.562828   x 
            x  Al          19         0.573229   0.564155   0.559741   x 
            x  Al          20         0.817728   0.559166   0.562531   x 
            x  Al          21         0.575179   0.809576   0.566073   x 
            x  Al          22         0.819506   0.808399   0.563822   x 
            x  Al          23         0.577658   0.057871   0.569183   x 
            x  Al          24         0.820521   0.058410   0.564020   x 
            x  Al          25         0.571014   0.309951   0.811997   x 
            x  Al          26         0.817584   0.310510   0.813260   x 
            x  Al          27         0.568361   0.558297   0.812771   x 
            x  Al          28         0.817093   0.558171   0.813053   x 
            x  Al          29         0.570314   0.808081   0.813852   x 
            x  Al          30         0.819175   0.807413   0.813634   x 
            x  Al          31         0.572100   0.058932   0.812499   x 
            x  Al          32         0.819934   0.059407   0.814085   x 
            x  Al          33         0.328862   0.183238   0.934599   x 
            x  Al          34         0.056071   0.058323   0.808385   x 
            x  Al          35         0.192522   0.190652   0.805033   x 
            x  Al          36         0.321889   0.935684   0.939154   x 
            x  Al          37         0.192765   0.929975   0.805327   x 
            x  Al          38         0.318552   0.689581   0.944125   x 
            x  Al          39         0.074781   0.687235   0.929655   x 
            x  Al          40         0.197362   0.186655   0.572021   x 
            x  Al          41         0.066288   0.807061   0.566004   x 
            x  Al          42         0.325651   0.685598   0.688412   x 
            x  Al          43         0.193001   0.670154   0.563450   x 
            x  Al          44         0.325052   0.427628   0.687905   x 
            x  Al          45         0.327584   0.555988   0.819303   x 
            x  Al          46         0.198340   0.432133   0.547127   x 
            x  Al          47         0.065949   0.435124   0.684574   x 
            x  Al          48         0.317906   0.059858   0.311660   x 
            x  Al          49         0.441055   0.056783   0.444993   x 
            x  Al          50         0.185933   0.054361   0.184730   x 
            x  Al          51         0.066227   0.182485   0.441005   x 
            x  Al          52         0.433975   0.815754   0.439866   x 
            x  Al          53         0.069903   0.945639   0.441857   x 
            x  Al          54         0.200700   0.809930   0.431840   x 
            x  Al          55         0.432650   0.678665   0.311038   x 
            x  Al          56         0.437485   0.432543   0.545601   x 
            x  Al          57         0.193425   0.425568   0.319511   x 
            x  Al          58         0.187333   0.186961   0.058279   x 
            x  Al          59         0.434532   0.816990   0.185199   x 
            x  Al          60         0.191770   0.812312   0.187246   x 
            x  Al          61         0.192085   0.426488   0.056748   x 
            x  Al          62         0.191247   0.427430   0.822123   x 
            x  Al          63         0.188982   0.565212   0.186226   x 
            x  Ni           1         0.566326   0.431767   0.190718   x 
            x  Ni           2         0.694041   0.308251   0.188473   x 
            x  Ni           3         0.692558   0.433803   0.064397   x 
            x  Ni           4         0.818078   0.433915   0.187951   x 
            x  Ni           5         0.942832   0.309437   0.187429   x 
            x  Ni           6         0.942426   0.434346   0.062634   x 
            x  Ni           7         0.564261   0.687712   0.191739   x 
            x  Ni           8         0.692799   0.559065   0.188561   x 
            x  Ni           9         0.692856   0.682742   0.063981   x 
            x  Ni          10         0.818698   0.683407   0.187578   x 
            x  Ni          11         0.942537   0.558785   0.187665   x 
            x  Ni          12         0.942700   0.683078   0.062494   x 
            x  Ni          13         0.569249   0.932778   0.185210   x 
            x  Ni          14         0.695665   0.809096   0.186539   x 
            x  Ni          15         0.695876   0.934397   0.061256   x 
            x  Ni          16         0.820129   0.933822   0.186390   x 
            x  Ni          17         0.942996   0.808288   0.187066   x 
            x  Ni          18         0.943364   0.933396   0.061976   x 
            x  Ni          19         0.568782   0.183166   0.187725   x 
            x  Ni          20         0.696097   0.058622   0.185897   x 
            x  Ni          21         0.694106   0.184486   0.062391   x 
            x  Ni          22         0.819322   0.184128   0.186964   x 
            x  Ni          23         0.943433   0.058987   0.186860   x 
            x  Ni          24         0.943179   0.184762   0.062234   x 
            x  Ni          25         0.568748   0.432225   0.437722   x 
            x  Ni          26         0.694945   0.306625   0.436529   x 
            x  Ni          27         0.694403   0.432189   0.313257   x 
            x  Ni          28         0.818326   0.433905   0.437621   x 
            x  Ni          29         0.942747   0.309244   0.438060   x 
            x  Ni          30         0.942453   0.434216   0.312817   x 
            x  Ni          31         0.564607   0.689425   0.433061   x 
            x  Ni          32         0.693888   0.560210   0.436673   x 
            x  Ni          33         0.694229   0.684643   0.312469   x 
            x  Ni          34         0.819026   0.684279   0.437540   x 
            x  Ni          35         0.942400   0.559063   0.437931   x 
            x  Ni          36         0.942961   0.683701   0.312632   x 
            x  Ni          37         0.568742   0.935371   0.440257   x 
            x  Ni          38         0.695590   0.810250   0.438393   x 
            x  Ni          39         0.697786   0.935199   0.312221   x 
            x  Ni          40         0.820657   0.933755   0.438368   x 
            x  Ni          41         0.943351   0.808509   0.438125   x 
            x  Ni          42         0.943398   0.933533   0.312405   x 
            x  Ni          43         0.569798   0.177373   0.437541   x 
            x  Ni          44         0.696207   0.057442   0.438266   x 
            x  Ni          45         0.695586   0.182485   0.312252   x 
            x  Ni          46         0.820048   0.183135   0.437590   x 
            x  Ni          47         0.943929   0.058665   0.438191   x 
            x  Ni          48         0.943412   0.184008   0.312458   x 
            x  Ni          49         0.565872   0.434256   0.680437   x 
            x  Ni          50         0.694282   0.309716   0.687658   x 
            x  Ni          51         0.693787   0.433945   0.561234   x 
            x  Ni          52         0.817732   0.434592   0.687738   x 
            x  Ni          53         0.942823   0.309984   0.688234   x 
            x  Ni          54         0.942473   0.434483   0.563023   x 
            x  Ni          55         0.567159   0.683821   0.688675   x 
            x  Ni          56         0.692517   0.558858   0.687210   x 
            x  Ni          57         0.694391   0.684932   0.562037   x 
            x  Ni          58         0.818286   0.682873   0.688404   x 
            x  Ni          59         0.942523   0.558832   0.688035   x 
            x  Ni          60         0.942701   0.683503   0.563286   x 
            x  Ni          61         0.570598   0.933057   0.690555   x 
            x  Ni          62         0.695399   0.807913   0.690082   x 
            x  Ni          63         0.697380   0.933449   0.564742   x 
            x  Ni          64         0.820290   0.933065   0.689600   x 
            x  Ni          65         0.943322   0.807877   0.688688   x 
            x  Ni          66         0.943728   0.933317   0.563827   x 
            x  Ni          67         0.570994   0.183588   0.688807   x 
            x  Ni          68         0.697676   0.058636   0.690690   x 
            x  Ni          69         0.697809   0.182480   0.563332   x 
            x  Ni          70         0.819701   0.184842   0.689224   x 
            x  Ni          71         0.943620   0.058959   0.688884   x 
            x  Ni          72         0.942935   0.184264   0.563481   x 
            x  Ni          73         0.567324   0.434228   0.940255   x 
            x  Ni          74         0.692479   0.309766   0.938379   x 
            x  Ni          75         0.690865   0.434732   0.811886   x 
            x  Ni          76         0.816931   0.434358   0.937917   x 
            x  Ni          77         0.942803   0.310068   0.937694   x 
            x  Ni          78         0.942534   0.434550   0.812963   x 
            x  Ni          79         0.567582   0.683420   0.938634   x 
            x  Ni          80         0.691804   0.558278   0.938812   x 
            x  Ni          81         0.692945   0.682275   0.813313   x 
            x  Ni          82         0.817797   0.682300   0.938119   x 
            x  Ni          83         0.942468   0.558540   0.937901   x 
            x  Ni          84         0.942799   0.682775   0.813215   x 
            x  Ni          85         0.569116   0.934442   0.936813   x 
            x  Ni          86         0.695035   0.807910   0.937023   x 
            x  Ni          87         0.695600   0.933329   0.813988   x 
            x  Ni          88         0.819619   0.933672   0.937529   x 
            x  Ni          89         0.942983   0.807796   0.937794   x 
            x  Ni          90         0.943822   0.933276   0.813441   x 
            x  Ni          91         0.568091   0.183801   0.937788   x 
            x  Ni          92         0.694579   0.059582   0.937409   x 
            x  Ni          93         0.694561   0.185060   0.813737   x 
            x  Ni          94         0.818791   0.185204   0.937794   x 
            x  Ni          95         0.943731   0.059253   0.937630   x 
            x  Ni          96         0.943449   0.185080   0.813288   x 
            x  Ni          97         0.072829   0.431161   0.186795   x 
            x  Ni          98         0.191935   0.306445   0.186735   x 
            x  Ni          99         0.064917   0.306351   0.060173   x 
            x  Ni         100         0.312163   0.432397   0.187991   x 
            x  Ni         101         0.442260   0.306972   0.190645   x 
            x  Ni         102         0.317038   0.557594   0.063230   x 
            x  Ni         103         0.320139   0.305262   0.062716   x 
            x  Ni         104         0.066030   0.560488   0.057941   x 
            x  Ni         105         0.065169   0.687893   0.186848   x 
            x  Ni         106         0.315101   0.685121   0.184373   x 
            x  Ni         107         0.441818   0.557475   0.189699   x 
            x  Ni         108         0.444424   0.685948   0.066408   x 
            x  Ni         109         0.190257   0.686468   0.061682   x 
            x  Ni         110         0.065588   0.934550   0.185093   x 
            x  Ni         111         0.316805   0.812873   0.062332   x 
            x  Ni         112         0.190165   0.936728   0.057401   x 
            x  Ni         113         0.314070   0.939045   0.184711   x 
            x  Ni         114         0.318439   0.812068   0.309959   x 
            x  Ni         115         0.444956   0.936072   0.061698   x 
            x  Ni         116         0.065355   0.181074   0.184365   x 
            x  Ni         117         0.315999   0.062240   0.059553   x 
            x  Ni         118         0.066715   0.058915   0.055875   x 
            x  Ni         119         0.314812   0.179872   0.186090   x 
            x  Ni         120         0.443526   0.057239   0.187284   x 
            x  Ni         121         0.445038   0.183122   0.064088   x 
            x  Ni         122         0.193170   0.061874   0.928562   x 
            x  Ni         123         0.065619   0.430864   0.437518   x 
            x  Ni         124         0.191733   0.301352   0.437857   x 
            x  Ni         125         0.063956   0.304163   0.312175   x 
            x  Ni         126         0.446559   0.302658   0.435770   x 
            x  Ni         127         0.438318   0.432384   0.317734   x 
            x  Ni         128         0.319064   0.304684   0.313795   x 
            x  Ni         129         0.070257   0.685836   0.440089   x 
            x  Ni         130         0.191552   0.557526   0.433084   x 
            x  Ni         131         0.191399   0.685426   0.310824   x 
            x  Ni         132         0.066314   0.558595   0.311654   x 
            x  Ni         133         0.316028   0.682607   0.438127   x 
            x  Ni         134         0.444263   0.560813   0.434024   x 
            x  Ni         135         0.313727   0.554717   0.311409   x 
            x  Ni         136         0.065820   0.059667   0.312760   x 
            x  Ni         137         0.069375   0.815102   0.316211   x 
            x  Ni         138         0.315088   0.938455   0.440022   x 
            x  Ni         139         0.444489   0.936655   0.313814   x 
            x  Ni         140         0.191164   0.937997   0.312956   x 
            x  Ni         141         0.193967   0.063596   0.441017   x 
            x  Ni         142         0.190257   0.181730   0.310324   x 
            x  Ni         143         0.318020   0.180585   0.439169   x 
            x  Ni         144         0.444086   0.178015   0.313236   x 
            x  Ni         145         0.064865   0.308904   0.563085   x 
            x  Ni         146         0.448799   0.308993   0.682983   x 
            x  Ni         147         0.321314   0.309070   0.558770   x 
            x  Ni         148         0.066431   0.679162   0.688399   x 
            x  Ni         149         0.064891   0.556357   0.563051   x 
            x  Ni         150         0.197806   0.549121   0.690379   x 
            x  Ni         151         0.444901   0.557166   0.684527   x 
            x  Ni         152         0.444738   0.685578   0.560058   x 
            x  Ni         153         0.320811   0.555572   0.561509   x 
            x  Ni         154         0.064684   0.932195   0.687218   x 
            x  Ni         155         0.193012   0.803378   0.684728   x 
            x  Ni         156         0.191235   0.933597   0.565350   x 
            x  Ni         157         0.318285   0.932130   0.688771   x 
            x  Ni         158         0.445924   0.809728   0.686520   x 
            x  Ni         159         0.444699   0.933884   0.565368   x 
            x  Ni         160         0.315934   0.807019   0.563678   x 
            x  Ni         161         0.064882   0.186224   0.686487   x 
            x  Ni         162         0.191131   0.059456   0.691489   x 
            x  Ni         163         0.067446   0.061746   0.566501   x 
            x  Ni         164         0.320510   0.186986   0.689229   x 
            x  Ni         165         0.446315   0.058110   0.687215   x 
            x  Ni         166         0.445640   0.181835   0.563847   x 
            x  Ni         167         0.318108   0.059509   0.567997   x 
            x  Ni         168         0.066252   0.431621   0.935905   x 
            x  Ni         169         0.194610   0.303185   0.935928   x 
            x  Ni         170         0.192949   0.316989   0.685276   x 
            x  Ni         171         0.063583   0.309412   0.808278   x 
            x  Ni         172         0.320227   0.431847   0.938752   x 
            x  Ni         173         0.447505   0.308734   0.939130   x 
            x  Ni         174         0.447229   0.432730   0.812710   x 
            x  Ni         175         0.323165   0.309213   0.812856   x 
            x  Ni         176         0.067164   0.810919   0.058020   x 
            x  Ni         177         0.194194   0.558624   0.938136   x 
            x  Ni         178         0.199362   0.680453   0.810265   x 
            x  Ni         179         0.066280   0.556959   0.811618   x 
            x  Ni         180         0.442114   0.432246   0.066362   x 
            x  Ni         181         0.443587   0.683657   0.814754   x 
            x  Ni         182         0.444773   0.559654   0.943066   x 
            x  Ni         183         0.068169   0.932809   0.930342   x 
            x  Ni         184         0.194938   0.811414   0.934572   x 
            x  Ni         185         0.066525   0.807285   0.808272   x 
            x  Ni         186         0.445011   0.809972   0.940110   x 
            x  Ni         187         0.444728   0.934163   0.812638   x 
            x  Ni         188         0.321361   0.809290   0.813126   x 
            x  Ni         189         0.066359   0.183885   0.930973   x 
            x  Ni         190         0.320507   0.059009   0.811004   x 
            x  Ni         191         0.446403   0.058572   0.937259   x 
            x  Ni         192         0.446830   0.184331   0.810408   x 
            xxxxxxxxxxxxxxxxxxxxxxxxxxxxxxxxxxxxxxxxxxxxxxxxxxxxxxxxxxxx
 
 
                         No user defined ionic velocities
 
                           -------------------------------
                                   Details of Species
                           -------------------------------
 
                               Mass of species in AMU
                                    Al   26.9815400
                                    Ni   58.6934000
 
                          Electric Quadrupole Moment (Barn)
                                    Al    0.1466000 Isotope 27
                                    Ni    0.1620000 Isotope 61
 
                          Files used for pseudopotentials:
                                    Al 3|2.2|2.2|1.4|4|5|5|30:31:32U2U2
                                    Ni 3|2.4|2.4|1.0|8|9|10|40:41:32U2U2(qc=5.5)
 
                           -------------------------------
                              k-Points For BZ Sampling
                           -------------------------------
                       MP grid size for SCF calculation is  1  1  1
                            with an offset of   0.000  0.000  0.000
                       Number of kpoints used =             1
 
                           -------------------------------
                               Symmetry and Constraints
                           -------------------------------
 
                      Maximum deviation from symmetry =  0.00000         ANG
 
                      Number of symmetry operations   =           1
                      Number of ionic constraints     =           3
                      Point group of crystal =     1: C1, 1, 1
                      Space group of crystal =     1: P1, P 1
 
             Set iprint > 1 for details on symmetry rotations/translations
 
                         Centre of mass is constrained
             Set iprint > 1 for details of linear ionic constraints
 
                         Number of cell constraints= 6
                         Cell constraints are:  0 0 0 0 0 0
 
                         External pressure/stress (GPa)
                          0.00000   0.00000   0.00000
                                    0.00000   0.00000
                                              0.00000
 
+---------------- MEMORY AND SCRATCH DISK ESTIMATES PER PROCESS --------------+
|                                                     Memory          Disk    |
| Baseline code, static data and system overhead      861.0 MB         0.0 MB |
| BLAS internal memory storage                          0.0 MB         0.0 MB |
| Model and support data                              349.7 MB         0.0 MB |
| Electronic energy minimisation requirements          97.8 MB         0.0 MB |
| Force calculation requirements                        2.3 MB         0.0 MB |
|                                               ----------------------------- |
| Approx. total storage required per process         1308.5 MB         0.0 MB |
|                                                                             |
| Requirements will fluctuate during execution and may exceed these estimates |
+-----------------------------------------------------------------------------+
Calculating approximate eigenstates for fixed initial Hamiltonian
Cut-off for approx. calculation is  550.359 eV
Resetting cut-off to  900.000 eV
Calculating total energy with cut-off of  900.000 eV.
------------------------------------------------------------------------ <-- SCF
SCF loop      Energy           Fermi           Energy gain       Timer   <-- SCF
                               energy          per atom          (sec)   <-- SCF
------------------------------------------------------------------------ <-- SCF
Initial  -2.71866905E+005  0.00000000E+000                      1463.75  <-- SCF
      1  -2.71331818E+005  3.13439803E+000  -2.09838271E+000    1528.65  <-- SCF
      2  -2.71488839E+005  3.16405775E+000   6.15771620E-001    1604.82  <-- SCF
      3  -2.72598095E+005  8.81854071E+000   4.35002173E+000    1689.34  <-- SCF
      4  -2.72651614E+005  8.82899039E+000   2.09879013E-001    1757.24  <-- SCF
      5  -2.71598781E+005  6.36074039E+000  -4.12875627E+000    1860.41  <-- SCF
      6  -2.71741661E+005  6.35956724E+000   5.60313808E-001    1931.36  <-- SCF
      7  -2.71448798E+005  4.82755631E+000  -1.14848111E+000    2011.17  <-- SCF
      8  -2.71394776E+005  4.43771299E+000  -2.11854274E-001    2090.98  <-- SCF
      9  -2.71388370E+005  4.40275538E+000  -2.51205801E-002    2158.30  <-- SCF
     10  -2.71392178E+005  4.46294512E+000   1.49347544E-002    2228.53  <-- SCF
     11  -2.72049785E+005  5.91317630E+000   2.57885196E+000    2307.52  <-- SCF
     12  -2.71570505E+005  4.73918804E+000  -1.87953237E+000    2412.11  <-- SCF
     13  -2.71445884E+005  4.25622763E+000  -4.88706844E-001    2501.16  <-- SCF
     14  -2.71408995E+005  4.20240302E+000  -1.44665810E-001    2580.02  <-- SCF
     15  -2.71398646E+005  4.29709515E+000  -4.05849328E-002    2661.60  <-- SCF
     16  -2.71394144E+005  4.33422790E+000  -1.76542104E-002    2733.92  <-- SCF
     17  -2.71390540E+005  4.33864375E+000  -1.41311563E-002    2822.03  <-- SCF
     18  -2.71388402E+005  4.33649741E+000  -8.38489565E-003    2891.21  <-- SCF
     19  -2.71386642E+005  4.33391178E+000  -6.90182579E-003    2959.23  <-- SCF
     20  -2.71385731E+005  4.34752880E+000  -3.57163544E-003    3035.68  <-- SCF
     21  -2.71385258E+005  4.36867640E+000  -1.85724800E-003    3116.61  <-- SCF
     22  -2.71385116E+005  4.38063135E+000  -5.57537202E-004    3198.55  <-- SCF
     23  -2.71384969E+005  4.39110484E+000  -5.74472052E-004    3291.96  <-- SCF
     24  -2.71384795E+005  4.38452087E+000  -6.83771553E-004    3384.24  <-- SCF
     25  -2.71384784E+005  4.37482488E+000  -4.25763006E-005    3455.57  <-- SCF
     26  -2.71384776E+005  4.37426950E+000  -3.22275321E-005    3539.31  <-- SCF
     27  -2.71384753E+005  4.37726986E+000  -8.82179511E-005    3616.87  <-- SCF
     28  -2.71384752E+005  4.37828495E+000  -5.71487598E-006    3689.24  <-- SCF
     29  -2.71384755E+005  4.37915562E+000   1.42342343E-005    3782.09  <-- SCF
     30  -2.71384748E+005  4.37925762E+000  -2.71519995E-005    3855.56  <-- SCF
     31  -2.71384748E+005  4.37946558E+000  -4.49003866E-008    3902.45  <-- SCF
     32  -2.71384749E+005  4.37920319E+000   3.93530096E-007    3950.83  <-- SCF
------------------------------------------------------------------------ <-- SCF
 
Integrated Spin Density     =    0.707240E-01 hbar/2
Integrated |Spin Density|   =    0.141614     hbar/2
 
Final energy, E             =  -271380.2252934     eV
Final free energy (E-TS)    =  -271384.7485403     eV
(energies not corrected for finite basis set)
 
NB est. 0K energy (E-0.5TS)      =  -271382.4869168     eV
 

Writing analysis data to castep.castep_bin

Writing model to castep.check
 
+---------------- MEMORY AND SCRATCH DISK ESTIMATES PER PROCESS --------------+
|                                                     Memory          Disk    |
| Model and support data                              360.0 MB         0.0 MB |
| Electronic energy minimisation requirements          97.8 MB         0.0 MB |
| Geometry minimisation requirements                  126.4 MB         0.0 MB |
|                                               ----------------------------- |
| Approx. total storage required per process          584.2 MB         0.0 MB |
|                                                                             |
| Requirements will fluctuate during execution and may exceed these estimates |
+-----------------------------------------------------------------------------+
 
 
 ************************************** Forces **************************************
 *                                                                                  *
 *                           Cartesian components (eV/A)                            *
 * -------------------------------------------------------------------------------- *
 *                         x                    y                    z              *
 *                                                                                  *
 * Al              1     -0.11066             -0.00894             -0.03562         *
 * Al              2      0.04496             -0.02334             -0.00265         *
 * Al              3     -0.09809             -0.01804             -0.00818         *
 * Al              4      0.08063             -0.01002              0.00656         *
 * Al              5     -0.07629             -0.00133             -0.13909         *
 * Al              6      0.11553              0.02380              0.00707         *
 * Al              7     -0.15545              0.04154             -0.03198         *
 * Al              8      0.06638              0.01596             -0.02213         *
 * Al              9     -0.06434              0.04662             -0.00769         *
 * Al             10      0.04816              0.01308             -0.02838         *
 * Al             11     -0.03597             -0.12696              0.00301         *
 * Al             12      0.09654             -0.00035             -0.02112         *
 * Al             13      0.35467              0.07663             -0.01638         *
 * Al             14      0.03799             -0.04691             -0.03402         *
 * Al             15     -0.02173              0.00712             -0.11468         *
 * Al             16      0.06825              0.03528             -0.02059         *
 * Al             17     -0.08719             -0.05977              0.00706         *
 * Al             18      0.02514              0.02749             -0.00629         *
 * Al             19     -0.05575              0.04897             -0.02339         *
 * Al             20      0.06835             -0.00469             -0.01368         *
 * Al             21     -0.05091              0.00321              0.11924         *
 * Al             22      0.12017              0.00067             -0.00278         *
 * Al             23     -0.00218              0.02524              0.10253         *
 * Al             24      0.02585             -0.00160             -0.02033         *
 * Al             25     -0.11464             -0.06949              0.01737         *
 * Al             26      0.00180             -0.02184              0.01708         *
 * Al             27     -0.12050              0.00167              0.03068         *
 * Al             28      0.07227              0.02322              0.01010         *
 * Al             29     -0.14647              0.06457              0.02440         *
 * Al             30      0.05250              0.00271              0.02169         *
 * Al             31     -0.18119              0.01090              0.02948         *
 * Al             32      0.08799             -0.02377              0.03797         *
 * Al             33      0.12101              0.08393              0.11983         *
 * Al             34      0.36666              0.15215              0.30161         *
 * Al             35     -0.02089              0.00950             -0.06822         *
 * Al             36      0.16056              0.05025              0.21709         *
 * Al             37     -0.05015             -0.29363             -0.04699         *
 * Al             38      0.04626              0.07176              0.20412         *
 * Al             39     -0.55354             -0.28118              0.52913         *
 * Al             40      0.06319             -0.22871             -0.06322         *
 * Al             41     -0.68468             -0.05701              0.59727         *
 * Al             42      0.24961              0.22565             -0.14458         *
 * Al             43     -0.14321             -0.11437             -0.07174         *
 * Al             44      0.18414             -0.18948             -0.30350         *
 * Al             45     -0.07070              0.02265              0.22349         *
 * Al             46      0.03266              0.09725             -0.25288         *
 * Al             47     -0.69788             -0.05940              0.10082         *
 * Al             48     -0.25350             -0.09066             -0.03102         *
 * Al             49      0.01749              0.17678              0.12780         *
 * Al             50     -0.28732              0.06117             -0.04264         *
 * Al             51     -0.38286              0.03436             -0.66804         *
 * Al             52     -0.12934              0.03469              0.21026         *
 * Al             53     -0.50905             -0.07515             -0.65387         *
 * Al             54      0.10895             -0.05308             -0.16861         *
 * Al             55     -0.22211             -0.14008             -0.10813         *
 * Al             56      0.00760             -0.08976             -0.10648         *
 * Al             57     -0.01136             -0.07352             -0.00109         *
 * Al             58     -0.08321              0.03824              0.13219         *
 * Al             59     -0.02047              0.09075             -0.28265         *
 * Al             60     -0.18094             -0.03271             -0.15156         *
 * Al             61     -0.00564              0.04867              0.00596         *
 * Al             62     -0.19641              0.00168              0.27624         *
 * Al             63      0.00054              0.08421             -0.00943         *
 * Ni              1     -0.03651              0.05260             -0.02309         *
 * Ni              2      0.01367             -0.00601              0.01317         *
 * Ni              3      0.01266              0.01800              0.03062         *
 * Ni              4      0.11327             -0.01426             -0.00456         *
 * Ni              5      0.16854             -0.01359             -0.02706         *
 * Ni              6      0.19384              0.04001              0.02858         *
 * Ni              7      0.12268              0.20801              0.29760         *
 * Ni              8      0.02941             -0.00997              0.01270         *
 * Ni              9      0.04251              0.00740             -0.01893         *
 * Ni             10     -0.00289              0.00020              0.02835         *
 * Ni             11      0.34888             -0.07475             -0.05097         *
 * Ni             12      0.22105              0.07684             -0.02757         *
 * Ni             13      0.10018             -0.15460              0.18119         *
 * Ni             14     -0.06009             -0.01578              0.00619         *
 * Ni             15     -0.08490             -0.02224              0.04638         *
 * Ni             16     -0.02181              0.00146             -0.01513         *
 * Ni             17      0.13018              0.11595              0.00635         *
 * Ni             18      0.12468             -0.00798             -0.16125         *
 * Ni             19      0.00179             -0.01813              0.07734         *
 * Ni             20      0.05308              0.01228              0.00769         *
 * Ni             21     -0.00012             -0.00710             -0.00721         *
 * Ni             22      0.02591              0.01119             -0.01938         *
 * Ni             23      0.15234             -0.00959             -0.05447         *
 * Ni             24      0.05412             -0.10958             -0.11635         *
 * Ni             25      0.03678              0.03995              0.07818         *
 * Ni             26      0.04226              0.08705              0.01230         *
 * Ni             27      0.08277              0.00884             -0.04436         *
 * Ni             28      0.00283              0.01840             -0.05732         *
 * Ni             29      0.07275              0.07217             -0.02274         *
 * Ni             30      0.23955             -0.06819             -0.10235         *
 * Ni             31      0.17057              0.19644             -0.28865         *
 * Ni             32     -0.02450             -0.05934              0.02039         *
 * Ni             33     -0.05362              0.01932              0.00994         *
 * Ni             34     -0.05211             -0.08159             -0.01643         *
 * Ni             35      0.20310             -0.01477              0.00019         *
 * Ni             36      0.25728              0.11065              0.05689         *
 * Ni             37      0.19756             -0.05993             -0.07109         *
 * Ni             38      0.02329             -0.03874              0.00956         *
 * Ni             39     -0.07692             -0.00195              0.02433         *
 * Ni             40     -0.01689             -0.04515             -0.01977         *
 * Ni             41      0.33719              0.05194             -0.02143         *
 * Ni             42      0.16846              0.06800             -0.07632         *
 * Ni             43      0.09078             -0.02352              0.02474         *
 * Ni             44      0.08677              0.00004             -0.00266         *
 * Ni             45     -0.03346             -0.00137              0.03787         *
 * Ni             46      0.00319              0.07492             -0.00227         *
 * Ni             47     -0.22733              0.10960              0.10727         *
 * Ni             48     -0.06599             -0.10762             -0.12161         *
 * Ni             49      0.22659             -0.05226             -0.00543         *
 * Ni             50     -0.01365             -0.01420             -0.01339         *
 * Ni             51     -0.00685              0.00773             -0.00530         *
 * Ni             52      0.05779             -0.01110              0.00770         *
 * Ni             53     -0.08295             -0.17269             -0.11253         *
 * Ni             54     -0.15698             -0.05819             -0.23627         *
 * Ni             55      0.09765              0.02741             -0.14585         *
 * Ni             56     -0.02059              0.01170             -0.03335         *
 * Ni             57      0.00030              0.00994              0.01221         *
 * Ni             58     -0.01887              0.01344             -0.03495         *
 * Ni             59     -0.01568              0.13540             -0.02220         *
 * Ni             60      0.09253             -0.14674             -0.04796         *
 * Ni             61      0.08990              0.05479             -0.16048         *
 * Ni             62     -0.00360             -0.02607             -0.01031         *
 * Ni             63     -0.11089              0.00082             -0.06161         *
 * Ni             64     -0.03698              0.01380              0.01506         *
 * Ni             65     -0.03440             -0.10795              0.11865         *
 * Ni             66      0.06819              0.03221             -0.02043         *
 * Ni             67      0.07329             -0.01524             -0.12980         *
 * Ni             68     -0.00143              0.00863             -0.01749         *
 * Ni             69     -0.04113             -0.02183             -0.02353         *
 * Ni             70     -0.00651             -0.02943             -0.00711         *
 * Ni             71     -0.30020              0.03802             -0.48627         *
 * Ni             72     -0.13936             -0.03272              0.13101         *
 * Ni             73      0.10717             -0.00701              0.03518         *
 * Ni             74      0.03186             -0.00046             -0.00509         *
 * Ni             75      0.10269             -0.00907              0.03582         *
 * Ni             76      0.01505             -0.03060              0.06179         *
 * Ni             77      0.08631             -0.05739             -0.09107         *
 * Ni             78     -0.06929              0.00985              0.10388         *
 * Ni             79      0.11962             -0.02683              0.12899         *
 * Ni             80      0.03622              0.03001              0.00491         *
 * Ni             81      0.01195              0.02676             -0.00917         *
 * Ni             82      0.00680             -0.00656             -0.01068         *
 * Ni             83      0.12762             -0.05925             -0.08937         *
 * Ni             84     -0.01399             -0.04448             -0.13087         *
 * Ni             85      0.12462             -0.00690              0.04800         *
 * Ni             86      0.00158              0.00042             -0.00690         *
 * Ni             87     -0.00763             -0.01040             -0.00720         *
 * Ni             88     -0.04762              0.02377              0.02147         *
 * Ni             89      0.12121              0.11381             -0.15578         *
 * Ni             90     -0.28182             -0.35109             -0.11893         *
 * Ni             91      0.13708              0.05074             -0.00528         *
 * Ni             92      0.01221             -0.03354              0.01813         *
 * Ni             93      0.00024             -0.00509             -0.03616         *
 * Ni             94      0.02010              0.01172              0.01376         *
 * Ni             95     -0.13688             -0.06624              0.10963         *
 * Ni             96     -0.38301              0.27892             -0.12267         *
 * Ni             97     -0.30370              0.31577              0.00601         *
 * Ni             98      0.01792             -0.18315              0.16005         *
 * Ni             99      0.00403              0.28375              0.08964         *
 * Ni            100      0.24659              0.07921              0.20581         *
 * Ni            101     -0.22000              0.00692             -0.10574         *
 * Ni            102      0.02738             -0.08761              0.14117         *
 * Ni            103      0.09329              0.02133              0.04110         *
 * Ni            104      0.06679             -0.23714              0.40194         *
 * Ni            105     -0.02868             -0.17900              0.00475         *
 * Ni            106      0.31335             -0.05622              0.04781         *
 * Ni            107     -0.20201             -0.15602             -0.01581         *
 * Ni            108     -0.07066             -0.00094              0.01402         *
 * Ni            109      0.01632             -0.00866             -0.04454         *
 * Ni            110     -0.11740             -0.16959              0.15018         *
 * Ni            111     -0.22958             -0.04624             -0.04814         *
 * Ni            112      0.02733             -0.14573             -0.04027         *
 * Ni            113      0.26003              0.13332              0.07669         *
 * Ni            114      0.00873              0.00172              0.01049         *
 * Ni            115     -0.05793              0.00657              0.14592         *
 * Ni            116      0.12835              0.23016              0.14650         *
 * Ni            117      0.06611              0.02797              0.14346         *
 * Ni            118      0.13699             -0.00963              0.12276         *
 * Ni            119      0.16810              0.12401              0.05580         *
 * Ni            120     -0.02098              0.06369             -0.26394         *
 * Ni            121     -0.12217             -0.07885              0.23890         *
 * Ni            122     -0.17317             -0.06389              0.12783         *
 * Ni            123      0.02968              0.13828             -0.15952         *
 * Ni            124      0.08911             -0.11400              0.02030         *
 * Ni            125      0.21780              0.32034             -0.13039         *
 * Ni            126     -0.26385             -0.13514              0.11465         *
 * Ni            127     -0.02339             -0.04134             -0.19887         *
 * Ni            128     -0.14794             -0.14668              0.00210         *
 * Ni            129      0.02893              0.14172             -0.12456         *
 * Ni            130      0.01897              0.09569              0.02582         *
 * Ni            131      0.06427             -0.05486              0.14285         *
 * Ni            132      0.13493             -0.02410              0.02832         *
 * Ni            133      0.10590             -0.28363             -0.15245         *
 * Ni            134     -0.12226              0.01490              0.24660         *
 * Ni            135     -0.16421              0.06661              0.13121         *
 * Ni            136     -0.09802              0.07918             -0.17269         *
 * Ni            137     -0.26548             -0.43373             -0.04941         *
 * Ni            138      0.11974              0.08394             -0.02404         *
 * Ni            139     -0.13478             -0.03806             -0.09495         *
 * Ni            140      0.12404             -0.03461             -0.00776         *
 * Ni            141     -0.13063              0.04938              0.20630         *
 * Ni            142      0.21336              0.07875             -0.08857         *
 * Ni            143      0.32529              0.36826             -0.21998         *
 * Ni            144     -0.13045             -0.03133              0.02015         *
 * Ni            145      0.19754              0.06346             -0.07233         *
 * Ni            146     -0.35719             -0.11374              0.09148         *
 * Ni            147      0.00719             -0.02831              0.12482         *
 * Ni            148      0.26503              0.09508             -0.01409         *
 * Ni            149      0.21787             -0.03051             -0.24076         *
 * Ni            150      0.07934             -0.09704              0.27406         *
 * Ni            151     -0.30391             -0.03597              0.01995         *
 * Ni            152      0.02994             -0.03114             -0.06450         *
 * Ni            153     -0.09446              0.15256             -0.26499         *
 * Ni            154      0.25523              0.21393              0.01699         *
 * Ni            155     -0.00203             -0.13017              0.05959         *
 * Ni            156     -0.04933             -0.13452             -0.29570         *
 * Ni            157      0.25016              0.05448             -0.26660         *
 * Ni            158     -0.18213              0.08963              0.23612         *
 * Ni            159     -0.16461             -0.04997              0.11677         *
 * Ni            160     -0.25893              0.17941              0.23976         *
 * Ni            161      0.01849              0.06993              0.13206         *
 * Ni            162      0.00878             -0.13350              0.07769         *
 * Ni            163      0.09227              0.06617              0.26124         *
 * Ni            164      0.31875             -0.10944             -0.09283         *
 * Ni            165     -0.32714              0.08299              0.17049         *
 * Ni            166     -0.11868             -0.00306             -0.03493         *
 * Ni            167     -0.06043             -0.17061              0.10513         *
 * Ni            168     -0.24428              0.16387              0.22611         *
 * Ni            169     -0.03331             -0.12266             -0.05538         *
 * Ni            170      0.08833              0.26645              0.01021         *
 * Ni            171      0.26999              0.13082              0.33107         *
 * Ni            172      0.28320             -0.14474              0.01746         *
 * Ni            173     -0.27609              0.25916             -0.08664         *
 * Ni            174     -0.05817              0.01016              0.11074         *
 * Ni            175      0.00432             -0.03356             -0.01688         *
 * Ni            176      0.00656             -0.05111              0.22067         *
 * Ni            177      0.06361             -0.00580             -0.17609         *
 * Ni            178      0.07963              0.07368             -0.23164         *
 * Ni            179      0.29044             -0.07140              0.07699         *
 * Ni            180     -0.07461              0.02741             -0.10878         *
 * Ni            181     -0.10163             -0.04118              0.04657         *
 * Ni            182     -0.17179             -0.16500             -0.09745         *
 * Ni            183      0.06326              0.09387              0.36198         *
 * Ni            184     -0.15053              0.16023              0.00460         *
 * Ni            185      0.15002             -0.05449              0.02014         *
 * Ni            186     -0.00905             -0.10655             -0.13781         *
 * Ni            187     -0.07222             -0.10951             -0.18513         *
 * Ni            188      0.04279              0.18607             -0.07106         *
 * Ni            189     -0.05685              0.07987              0.27564         *
 * Ni            190      0.12903             -0.02687             -0.20632         *
 * Ni            191     -0.05974              0.04038             -0.10546         *
 * Ni            192      0.08301             -0.01866             -0.13444         *
 *                                                                                  *
 ************************************************************************************
 LBFGS: finished iteration     0 with enthalpy= -2.71384749E+005 eV
  
 +-----------+-----------------+-----------------+------------+-----+ <-- LBFGS
 | Parameter |      value      |    tolerance    |    units   | OK? | <-- LBFGS
 +-----------+-----------------+-----------------+------------+-----+ <-- LBFGS
 |  dE/ion   |   0.000000E+000 |   2.000000E-005 |         eV | No  | <-- LBFGS
 |  |F|max   |   9.103638E-001 |   5.000000E-002 |       eV/A | No  | <-- LBFGS
 |  |dR|max  |   0.000000E+000 |   1.000000E-003 |          A | No  | <-- LBFGS
 +-----------+-----------------+-----------------+------------+-----+ <-- LBFGS
  

================================================================================
 Starting LBFGS iteration          1 ...
================================================================================
  
 +------------+-------------+-------------+-----------------+ <-- min LBFGS
 |    Step    |   lambda    |   F.delta'  |    enthalpy     | <-- min LBFGS
 +------------+-------------+-------------+-----------------+ <-- min LBFGS
 |  previous  |    0.000000 |    2.058407 |  -271384.748540 | <-- min LBFGS
 +------------+-------------+-------------+-----------------+ <-- min LBFGS
  

--------------------------------------------------------------------------------
 LBFGS: starting iteration         1 with trial guess (lambda=  1.000000)
--------------------------------------------------------------------------------
 
                           -------------------------------
                                     Cell Contents
                           -------------------------------
 
            xxxxxxxxxxxxxxxxxxxxxxxxxxxxxxxxxxxxxxxxxxxxxxxxxxxxxxxxxxxxxxxxx
            x  Element         Atom        Fractional coordinates of atoms  x
            x                 Number           u          v          w      x
            x---------------------------------------------------------------x
            x  Al                1         0.569792   0.308621   0.065055   x
            x  Al                2         0.817957   0.309629   0.062663   x
            x  Al                3         0.568868   0.558711   0.066467   x
            x  Al                4         0.817361   0.558385   0.063173   x
            x  Al                5         0.574848   0.809257   0.059652   x
            x  Al                6         0.818759   0.807920   0.061958   x
            x  Al                7         0.571804   0.059187   0.062778   x
            x  Al                8         0.819562   0.059520   0.061545   x
            x  Al                9         0.569814   0.306128   0.313162   x
            x  Al               10         0.819191   0.308385   0.312556   x
            x  Al               11         0.573379   0.555023   0.312598   x
            x  Al               12         0.818126   0.558917   0.312631   x
            x  Al               13         0.577696   0.814994   0.312702   x
            x  Al               14         0.819656   0.808952   0.312388   x
            x  Al               15         0.574712   0.057061   0.308728   x
            x  Al               16         0.820463   0.058868   0.312166   x
            x  Al               17         0.575820   0.302857   0.560425   x
            x  Al               18         0.818655   0.309213   0.562828   x
            x  Al               19         0.573221   0.564161   0.559738   x
            x  Al               20         0.817737   0.559165   0.562529   x
            x  Al               21         0.575172   0.809577   0.566089   x
            x  Al               22         0.819522   0.808399   0.563822   x
            x  Al               23         0.577657   0.057875   0.569197   x
            x  Al               24         0.820525   0.058410   0.564018   x
            x  Al               25         0.570999   0.309942   0.812000   x
            x  Al               26         0.817584   0.310507   0.813263   x
            x  Al               27         0.568345   0.558297   0.812775   x
            x  Al               28         0.817102   0.558174   0.813054   x
            x  Al               29         0.570294   0.808089   0.813856   x
            x  Al               30         0.819182   0.807413   0.813637   x
            x  Al               31         0.572076   0.058933   0.812503   x
            x  Al               32         0.819946   0.059404   0.814090   x
            x  Al               33         0.328878   0.183249   0.934615   x
            x  Al               34         0.056120   0.058343   0.808425   x
            x  Al               35         0.192519   0.190654   0.805024   x
            x  Al               36         0.321910   0.935690   0.939183   x
            x  Al               37         0.192758   0.929936   0.805321   x
            x  Al               38         0.318558   0.689590   0.944152   x
            x  Al               39         0.074708   0.687197   0.929725   x
            x  Al               40         0.197370   0.186624   0.572013   x
            x  Al               41         0.066197   0.807053   0.566083   x
            x  Al               42         0.325685   0.685628   0.688393   x
            x  Al               43         0.192982   0.670139   0.563440   x
            x  Al               44         0.325076   0.427603   0.687865   x
            x  Al               45         0.327575   0.555991   0.819332   x
            x  Al               46         0.198344   0.432146   0.547094   x
            x  Al               47         0.065857   0.435116   0.684588   x
            x  Al               48         0.317872   0.059846   0.311656   x
            x  Al               49         0.441057   0.056806   0.445010   x
            x  Al               50         0.185895   0.054369   0.184725   x
            x  Al               51         0.066176   0.182490   0.440917   x
            x  Al               52         0.433957   0.815759   0.439894   x
            x  Al               53         0.069835   0.945629   0.441770   x
            x  Al               54         0.200714   0.809923   0.431818   x
            x  Al               55         0.432621   0.678646   0.311023   x
            x  Al               56         0.437486   0.432531   0.545587   x
            x  Al               57         0.193423   0.425559   0.319511   x
            x  Al               58         0.187322   0.186967   0.058297   x
            x  Al               59         0.434530   0.817002   0.185162   x
            x  Al               60         0.191746   0.812308   0.187226   x
            x  Al               61         0.192085   0.426494   0.056749   x
            x  Al               62         0.191221   0.427430   0.822159   x
            x  Al               63         0.188982   0.565223   0.186225   x
            x  Ni                1         0.566321   0.431774   0.190715   x
            x  Ni                2         0.694043   0.308250   0.188475   x
            x  Ni                3         0.692560   0.433806   0.064401   x
            x  Ni                4         0.818093   0.433914   0.187950   x
            x  Ni                5         0.942854   0.309435   0.187425   x
            x  Ni                6         0.942451   0.434351   0.062638   x
            x  Ni                7         0.564277   0.687740   0.191778   x
            x  Ni                8         0.692803   0.559064   0.188563   x
            x  Ni                9         0.692862   0.682743   0.063978   x
            x  Ni               10         0.818698   0.683407   0.187582   x
            x  Ni               11         0.942583   0.558775   0.187658   x
            x  Ni               12         0.942729   0.683088   0.062490   x
            x  Ni               13         0.569262   0.932758   0.185234   x
            x  Ni               14         0.695657   0.809094   0.186540   x
            x  Ni               15         0.695864   0.934394   0.061262   x
            x  Ni               16         0.820126   0.933822   0.186388   x
            x  Ni               17         0.943013   0.808303   0.187067   x
            x  Ni               18         0.943381   0.933395   0.061954   x
            x  Ni               19         0.568782   0.183163   0.187736   x
            x  Ni               20         0.696104   0.058623   0.185898   x
            x  Ni               21         0.694106   0.184485   0.062390   x
            x  Ni               22         0.819326   0.184130   0.186962   x
            x  Ni               23         0.943453   0.058985   0.186853   x
            x  Ni               24         0.943187   0.184747   0.062218   x
            x  Ni               25         0.568753   0.432230   0.437732   x
            x  Ni               26         0.694951   0.306637   0.436531   x
            x  Ni               27         0.694414   0.432191   0.313251   x
            x  Ni               28         0.818326   0.433907   0.437613   x
            x  Ni               29         0.942757   0.309254   0.438057   x
            x  Ni               30         0.942485   0.434207   0.312803   x
            x  Ni               31         0.564630   0.689451   0.433022   x
            x  Ni               32         0.693884   0.560203   0.436676   x
            x  Ni               33         0.694222   0.684646   0.312471   x
            x  Ni               34         0.819019   0.684268   0.437537   x
            x  Ni               35         0.942427   0.559061   0.437931   x
            x  Ni               36         0.942995   0.683716   0.312640   x
            x  Ni               37         0.568768   0.935363   0.440248   x
            x  Ni               38         0.695593   0.810245   0.438395   x
            x  Ni               39         0.697775   0.935198   0.312224   x
            x  Ni               40         0.820655   0.933749   0.438365   x
            x  Ni               41         0.943396   0.808516   0.438122   x
            x  Ni               42         0.943420   0.933542   0.312395   x
            x  Ni               43         0.569810   0.177370   0.437545   x
            x  Ni               44         0.696219   0.057442   0.438265   x
            x  Ni               45         0.695582   0.182484   0.312257   x
            x  Ni               46         0.820049   0.183145   0.437589   x
            x  Ni               47         0.943899   0.058680   0.438205   x
            x  Ni               48         0.943403   0.183993   0.312442   x
            x  Ni               49         0.565902   0.434249   0.680437   x
            x  Ni               50         0.694280   0.309714   0.687656   x
            x  Ni               51         0.693786   0.433947   0.561233   x
            x  Ni               52         0.817740   0.434590   0.687739   x
            x  Ni               53         0.942812   0.309961   0.688219   x
            x  Ni               54         0.942452   0.434476   0.562992   x
            x  Ni               55         0.567172   0.683824   0.688656   x
            x  Ni               56         0.692514   0.558860   0.687205   x
            x  Ni               57         0.694391   0.684933   0.562039   x
            x  Ni               58         0.818284   0.682875   0.688400   x
            x  Ni               59         0.942521   0.558850   0.688032   x
            x  Ni               60         0.942714   0.683484   0.563280   x
            x  Ni               61         0.570610   0.933064   0.690533   x
            x  Ni               62         0.695399   0.807910   0.690081   x
            x  Ni               63         0.697365   0.933450   0.564734   x
            x  Ni               64         0.820285   0.933067   0.689602   x
            x  Ni               65         0.943318   0.807863   0.688704   x
            x  Ni               66         0.943737   0.933322   0.563824   x
            x  Ni               67         0.571004   0.183586   0.688789   x
            x  Ni               68         0.697676   0.058637   0.690688   x
            x  Ni               69         0.697803   0.182477   0.563328   x
            x  Ni               70         0.819701   0.184838   0.689223   x
            x  Ni               71         0.943580   0.058964   0.688819   x
            x  Ni               72         0.942916   0.184259   0.563498   x
            x  Ni               73         0.567339   0.434227   0.940259   x
            x  Ni               74         0.692483   0.309766   0.938378   x
            x  Ni               75         0.690879   0.434731   0.811890   x
            x  Ni               76         0.816933   0.434354   0.937925   x
            x  Ni               77         0.942815   0.310061   0.937682   x
            x  Ni               78         0.942525   0.434551   0.812977   x
            x  Ni               79         0.567598   0.683417   0.938652   x
            x  Ni               80         0.691808   0.558282   0.938813   x
            x  Ni               81         0.692946   0.682278   0.813312   x
            x  Ni               82         0.817798   0.682300   0.938117   x
            x  Ni               83         0.942485   0.558532   0.937890   x
            x  Ni               84         0.942797   0.682769   0.813198   x
            x  Ni               85         0.569132   0.934441   0.936820   x
            x  Ni               86         0.695035   0.807910   0.937022   x
            x  Ni               87         0.695599   0.933327   0.813987   x
            x  Ni               88         0.819613   0.933675   0.937532   x
            x  Ni               89         0.942999   0.807811   0.937773   x
[...]
             Al 43 -- Ni 133                 0.20        -0.00          2.59098
             Al 3  -- Ni 80                  0.20        -0.00          2.59112
             Al 25 -- Ni 73                  0.20        -0.00          2.59139
            Ni 49  -- Ni 174                 0.03         0.00          2.59149
            Ni 107 -- Ni 108                 0.04         0.00          2.59161
             Al 19 -- Ni 25                  0.20         0.00          2.59187
            Ni 110 -- Ni 112                 0.05        -0.00          2.59218
             Al 51 -- Ni 145                 0.19         0.00          2.59219
             Al 14 -- Ni 16                  0.19         0.00          2.59229
            Ni 116 -- Ni 118                 0.02         0.00          2.59239
            Ni 13  -- Ni 120                 0.04         0.00          2.59242
            Ni 59  -- Ni 78                 -0.00         0.00          2.59352
            Ni 37  -- Ni 139                -0.02         0.00          2.59352
             Al 15 -- Ni 44                  0.20         0.00          2.59355
             Al 9  -- Ni 43                  0.21        -0.00          2.59358
             Al 34 -- Ni 162                 0.16         0.00          2.59363
            Ni 101 -- Ni 144                 0.09         0.00          2.59366
            Ni 67  -- Ni 165                 0.03         0.00          2.59369
             Al 27 -- Ni 182                 0.17         0.00          2.59394
             Al 17 -- Ni 126                 0.15         0.00          2.59413
             Al 60 -- Ni 106                 0.19         0.00          2.59420
             Al 1  -- Ni 101                 0.17         0.00          2.59425
            Ni 143 -- Ni 167                 0.01        -0.00          2.59429
            Ni 150 -- Ni 178                 0.07         0.00          2.59442
            Ni 25  -- Ni 27                  0.06         0.00          2.59449
             Al 55 -- Ni 31                  0.18        -0.00          2.59451
             Al 23 -- Ni 165                 0.18         0.00          2.59513
             Al 27 -- Ni 80                  0.19        -0.00          2.59524
            Ni 29  -- Ni 72                  0.01        -0.00          2.59552
            Ni 35  -- Ni 129                 0.09         0.00          2.59554
            Ni 13  -- Ni 139                -0.01         0.00          2.59557
             Al 47 -- Ni 150                 0.22         0.00          2.59564
            Ni 121 -- Ni 191                 0.00         0.00          2.59569
            Ni 37  -- Ni 159                -0.02         0.00          2.59572
             Al 46 -- Ni 170                 0.17         0.00          2.59577
             Al 43 -- Ni 155                 0.19         0.00          2.59618
             Al 60 -- Ni 113                 0.19         0.00          2.59643
             Al 36 -- Ni 190                 0.17        -0.00          2.59643
             Al 11 -- Ni 107                 0.17         0.00          2.59657
            Ni 147 -- Ni 170                -0.03         0.00          2.59662
            Ni 133 -- Ni 160                -0.03         0.00          2.59664
            Ni 47  -- Ni 48                 -0.01         0.00          2.59666
             Al 22 -- Ni 62                  0.19         0.00          2.59687
            Ni 71  -- Ni 96                  0.01        -0.00          2.59695
            Ni 155 -- Ni 156                 0.06         0.00          2.59705
             Al 46 -- Ni 149                 0.13        -0.00          2.59720
             Al 38 -- Ni 181                 0.18        -0.00          2.59748
            Ni 13  -- Ni 20                  0.06         0.00          2.59787
            Ni 111 -- Ni 186                 0.08         0.00          2.59790
            Ni 41  -- Ni 66                 -0.03         0.00          2.59804
            Ni 25  -- Ni 134                -0.00        -0.00          2.59811
             Al 15 -- Ni 37                  0.19        -0.00          2.59813
            Ni 99  -- Ni 169                 0.01        -0.00          2.59819
            Ni 55  -- Ni 151                 0.08         0.00          2.59826
            Ni 98  -- Ni 99                  0.01        -0.00          2.59833
            Ni 174 -- Ni 182                -0.00         0.00          2.59995
            Ni 152 -- Ni 158                 0.02         0.00          2.60001
             Al 40 -- Ni 145                 0.16        -0.00          2.60048
             Al 41 -- Ni 129                 0.20         0.00          2.60056
             Al 11 -- Ni 7                   0.19        -0.00          2.60071
            Ni 112 -- Ni 122                 0.11        -0.00          2.60108
            Ni 111 -- Ni 115                 0.04         0.00          2.60115
            Ni 117 -- Ni 122                 0.04        -0.00          2.60132
            Ni 95  -- Ni 96                  0.01        -0.00          2.60141
             Al 24 -- Ni 46                  0.18         0.00          2.60146
            Ni 100 -- Ni 103                 0.09        -0.00          2.60180
             Al 51 -- Ni 142                 0.17         0.00          2.60210
            Ni 156 -- Ni 167                 0.12         0.00          2.60216
            Ni 155 -- Ni 157                 0.07        -0.00          2.60261
            Ni 53  -- Ni 78                  0.01         0.00          2.60296
             Al 48 -- Ni 141                 0.17         0.00          2.60310
            Ni 169 -- Ni 171                -0.00         0.00          2.60321
             Al 11 -- Ni 33                  0.19         0.00          2.60335
             Al 58 -- Ni 117                 0.15        -0.00          2.60346
             Al 38 -- Ni 188                 0.17         0.00          2.60357
             Al 43 -- Ni 150                 0.17         0.00          2.60357
             Al 9  -- Ni 127                 0.16         0.00          2.60387
             Al 16 -- Ni 40                  0.18         0.00          2.60423
            Ni 55  -- Ni 57                  0.03         0.00          2.60458
            Ni 129 -- Ni 149                 0.08         0.00          2.60460
            Ni 41  -- Ni 42                  0.03         0.00          2.60489
            Ni 142 -- Ni 143                 0.03        -0.00          2.60528
            Ni 53  -- Ni 54                 -0.00         0.00          2.60544
             Al 45 -- Ni 150                 0.15         0.00          2.60553
            Ni 146 -- Ni 174                 0.01         0.00          2.60571
            Ni 13  -- Ni 39                  0.01         0.00          2.60629
            Ni 54  -- Ni 59                 -0.00         0.00          2.60691
            Ni 170 -- Ni 171                -0.02         0.00          2.60790
             Al 38 -- Ni 177                 0.17        -0.00          2.60796
            Ni 71  -- Ni 90                  0.02        -0.00          2.60839
             Al 27 -- Ni 151                 0.17         0.00          2.60858
            Ni 138 -- Ni 139                -0.02         0.00          2.60916
            Ni 169 -- Ni 172                 0.01         0.00          2.60916
            Ni 113 -- Ni 139                 0.01         0.00          2.60941
            Ni 172 -- Ni 177                -0.02         0.00          2.60983
            Ni 152 -- Ni 153                 0.12         0.00          2.60985
            Ni 47  -- Ni 163                 0.06        -0.00          2.61073
            Ni 138 -- Ni 159                 0.02         0.00          2.61078
            Ni 1   -- Ni 8                   0.03         0.00          2.61085
             Al 61 -- Ni 104                 0.15        -0.00          2.61086
             Al 61 -- Ni 100                 0.18         0.00          2.61114
            Ni 173 -- Ni 192                -0.00         0.00          2.61127
            Ni 161 -- Ni 162                -0.01         0.00          2.61149
            Ni 60  -- Ni 65                  0.01        -0.00          2.61158
             Al 25 -- Ni 49                  0.19        -0.00          2.61179
            Ni 150 -- Ni 153                -0.01         0.00          2.61207
            Ni 129 -- Ni 132                 0.11         0.00          2.61233
             Al 34 -- Ni 122                 0.16        -0.00          2.61295
             Al 58 -- Ni 119                 0.17         0.00          2.61346
             Al 63 -- Ni 100                 0.17         0.00          2.61346
             Al 53 -- Ni 137                 0.18         0.00          2.61350
             Al 48 -- Ni 120                 0.18         0.00          2.61368
            Ni 117 -- Ni 191                 0.08         0.00          2.61378
            Ni 102 -- Ni 109                 0.00        -0.00          2.61391
             Al 44 -- Al 56                  0.30        -0.00          2.61494
            Ni 138 -- Ni 160                 0.05         0.00          2.61495
            Ni 65  -- Ni 148                 0.04         0.00          2.61506
            Ni 168 -- Ni 177                 0.04        -0.00          2.61587
             Al 51 -- Ni 163                 0.16        -0.00          2.61600
            Ni 121 -- Ni 173                 0.01         0.00          2.61601
            Ni 158 -- Ni 181                -0.01         0.00          2.61613
            Ni 152 -- Ni 160                 0.02         0.00          2.61675
            Ni 140 -- Ni 141                 0.07         0.00          2.61687
             Al 11 -- Ni 31                  0.19         0.00          2.61703
            Ni 178 -- Ni 185                 0.08        -0.00          2.61706
             Al 35 -- Ni 122                 0.18        -0.00          2.61724
            Ni 110 -- Ni 118                 0.04        -0.00          2.61764
            Ni 1   -- Ni 127                 0.02         0.00          2.61777
             Al 9  -- Ni 144                 0.18         0.00          2.61785
            Ni 115 -- Ni 117                 0.09        -0.00          2.61812
            Ni 151 -- Ni 152                 0.04         0.00          2.61830
            Ni 26  -- Ni 43                  0.05         0.00          2.61841
             Al 21 -- Ni 159                 0.15         0.00          2.61843
             Al 50 -- Ni 117                 0.15        -0.00          2.61916
            Ni 159 -- Ni 160                 0.09         0.00          2.61947
            Ni 178 -- Ni 179                 0.06         0.00          2.61969
             Al 11 -- Ni 127                 0.15        -0.00          2.62039
            Ni 178 -- Ni 184                 0.03        -0.00          2.62129
            Ni 42  -- Ni 47                 -0.01         0.00          2.62164
            Ni 65  -- Ni 66                  0.01         0.00          2.62166
             Al 27 -- Ni 49                  0.20        -0.00          2.62189
             Al 58 -- Ni 122                 0.17        -0.00          2.62197
             Al 21 -- Ni 31                  0.20         0.00          2.62264
            Ni 114 -- Ni 138                 0.01         0.00          2.62304
             Al 38 -- Ni 178                 0.16         0.00          2.62368
            Ni 102 -- Ni 108                 0.10         0.00          2.62425
            Ni 158 -- Ni 160                 0.11         0.00          2.62433
            Ni 37  -- Ni 39                  0.01         0.00          2.62512
             Al 19 -- Ni 151                 0.17         0.00          2.62550
             Al 36 -- Ni 184                 0.18         0.00          2.62583
            Ni 136 -- Ni 141                 0.01         0.00          2.62616
             Al 38 -- Ni 182                 0.16         0.00          2.62620
             Al 23 -- Ni 166                 0.15         0.00          2.62622
             Al 36 -- Ni 122                 0.17        -0.00          2.62695
            Ni 25  -- Ni 126                -0.00        -0.00          2.62786
             Al 46 -- Ni 145                 0.11        -0.00          2.62816
             Al 19 -- Ni 31                  0.17         0.00          2.62821
             Al 5  -- Ni 7                   0.18         0.00          2.62906
             Al 52 -- Ni 37                  0.15         0.00          2.62968
             Al 5  -- Ni 115                 0.15        -0.00          2.63031
            Ni 154 -- Ni 155                 0.06         0.00          2.63219
             Al 57 -- Ni 97                  0.14         0.00          2.63221
            Ni 155 -- Ni 188                 0.03         0.00          2.63251
            Ni 156 -- Ni 157                 0.12         0.00          2.63378
             Al 40 -- Ni 143                 0.16         0.00          2.63416
             Al 39 -- Ni 178                 0.18         0.00          2.63472
            Ni 108 -- Ni 111                 0.02         0.00          2.63571
            Ni 123 -- Ni 124                 0.01         0.00          2.63593
            Ni 170 -- Ni 175                -0.04         0.00          2.63881
             Al 37 -- Ni 190                 0.15        -0.00          2.63904
            Ni 114 -- Ni 133                -0.03         0.00          2.64041
            Ni 156 -- Ni 162                 0.13         0.00          2.64074
            Ni 49  -- Ni 75                  0.05         0.00          2.64074
            Ni 162 -- Ni 164                 0.01        -0.00          2.64090
            Ni 151 -- Ni 181                -0.01         0.00          2.64504
             Al 3  -- Ni 7                   0.18         0.00          2.64516
            Ni 7   -- Ni 107                 0.01         0.00          2.64529
             Al 50 -- Al 58                  0.24        -0.00          2.64599
             Al 13 -- Ni 139                 0.16         0.00          2.64631
            Ni 7   -- Ni 8                   0.05         0.00          2.64707
             Al 59 -- Ni 7                   0.15        -0.00          2.64816
             Al 48 -- Al 50                  0.25         0.00          2.64864
             Al 23 -- Ni 159                 0.13         0.00          2.64875
             Al 42 -- Ni 153                 0.15         0.00          2.64911
             Al 33 -- Ni 122                 0.15         0.00          2.65043
             Al 43 -- Ni 160                 0.15        -0.00          2.65144
             Al 44 -- Ni 153                 0.12         0.00          2.65167
             Al 35 -- Ni 189                 0.15         0.00          2.65177
             Al 35 -- Ni 190                 0.13        -0.00          2.65200
             Al 37 -- Ni 122                 0.15        -0.00          2.65339
             Al 52 -- Ni 31                  0.15         0.00          2.65486
             Al 48 -- Al 49                  0.26         0.00          2.65541
            Ni 106 -- Ni 135                -0.01         0.00          2.65681
            Ni 31  -- Ni 32                  0.04         0.00          2.65713
             Al 57 -- Ni 132                 0.11        -0.00          2.65730
            Ni 161 -- Ni 170                 0.04         0.00          2.66196
            Ni 7   -- Ni 9                   0.06         0.00          2.66337
             Al 38 -- Al 45                  0.23        -0.00          2.66407
             Al 42 -- Al 43                  0.25         0.00          2.66731
             Al 50 -- Ni 119                 0.13         0.00          2.66866
             Al 23 -- Al 49                  0.24         0.00          2.67002
            Ni 31  -- Ni 57                  0.05         0.00          2.67116
            Ni 148 -- Ni 150                 0.08        -0.00          2.67179
            Ni 149 -- Ni 150                 0.02         0.00          2.68017
            Ni 168 -- Ni 169                 0.02         0.00          2.68306
             Al 46 -- Ni 150                 0.11         0.00          2.69276
             Al 44 -- Al 45                  0.21         0.00          2.69960
             Al 5  -- Al 59                  0.20         0.00          2.70954
             Al 45 -- Al 62                  0.18         0.00          2.71617
             Al 42 -- Al 45                  0.21        -0.00          2.71680
            Ni 164 -- Ni 170                 0.03         0.00          2.71884
             Al 11 -- Al 55                  0.20        -0.00          2.72089
             Al 36 -- Al 37                  0.22         0.00          2.72156
             Al 56 -- Ni 146                 0.07        -0.00          2.72815
             Al 34 -- Al 35                  0.20        -0.00          2.72926
             Al 55 -- Al 59                  0.21         0.00          2.72968
             Al 56 -- Ni 151                 0.08         0.00          2.73093
             Al 21 -- Al 52                  0.20         0.00          2.73891
             Al 33 -- Al 58                  0.20         0.00          2.74102
             Al 34 -- Al 37                  0.19        -0.00          2.74418
             Al 44 -- Al 46                  0.21        -0.00          2.74574
             Al 61 -- Al 63                  0.20        -0.00          2.74652
             Al 41 -- Al 43                  0.18        -0.00          2.74840
             Al 33 -- Al 35                  0.20         0.00          2.75059
             Al 52 -- Al 55                  0.20         0.00          2.75373
             Al 17 -- Al 56                  0.17         0.00          2.75681
             Al 56 -- Ni 49                  0.11        -0.00          2.75748
             Al 47 -- Al 62                  0.17         0.00          2.76655
             Al 53 -- Al 54                  0.18         0.00          2.77580
             Al 40 -- Al 51                  0.20         0.00          2.77683
             Al 15 -- Al 49                  0.19         0.00          2.77767
             Al 19 -- Al 56                  0.17         0.00          2.77873
             Al 42 -- Ni 150                 0.11         0.00          2.78821
             Al 43 -- Al 54                  0.16         0.00          2.78876
             Al 57 -- Al 63                  0.15         0.00          2.79941
             Al 41 -- Al 53                  0.17         0.00          2.80117
             Al 44 -- Al 62                  0.15         0.00          2.81765
             Al 13 -- Al 59                  0.17         0.00          2.82911
             Al 13 -- Al 52                  0.17         0.00          2.84174
             Al 41 -- Al 54                  0.12         0.00          2.87766
             Al 46 -- Al 47                  0.13         0.00          2.88123
             Al 13 -- Al 55                  0.08         0.00          2.94622
================================================================================
 

Writing analysis data to castep.castep_bin

Writing model to castep.check
 
 A BibTeX formatted list of references used in this run has been written to 
 castep.bib
 
Initialisation time =     19.95 s
Calculation time    =  22812.82 s
Finalisation time   =     15.14 s
Total time          =  22847.91 s
Peak Memory Use     = 3970640 kB
 
Overall parallel efficiency rating: Satisfactory (64%)
 
Data was distributed by:-
G-vector (128-way); efficiency rating: Satisfactory (66%)
