 +-------------------------------------------------+
 |                                                 |
 |      CCC   AA    SSS  TTTTT  EEEEE  PPPP        |
 |     C     A  A  S       T    E      P   P       |
 |     C     AAAA   SS     T    EEE    PPPP        |
 |     C     A  A     S    T    E      P           |
 |      CCC  A  A  SSS     T    EEEEE  P           |
 |                                                 |
 +-------------------------------------------------+
 |                                                 |
 | Welcome to Academic Release CASTEP version 22.11|
 | Ab Initio Total Energy Program                  |
 |                                                 |
 | Authors:                                        |
 | M. Segall, M. Probert, C. Pickard, P. Hasnip,   |
 | S. Clark, K. Refson, J. R. Yates, M. Payne      |
 |                                                 |
 | Contributors:                                   |
 | P. Lindan, P. Haynes, J. White, V. Milman,      |
 | N. Govind, M. Gibson, P. Tulip, V. Cocula,      |
 | B. Montanari, D. Quigley, M. Glover,            |
 | L. Bernasconi, A. Perlov, M. Plummer,           |
 | E. McNellis, J. Meyer, J. Gale, D. Jochym       |
 | J. Aarons, B. Walker, R. Gillen, D. Jones       |
 | T. Green, I. J. Bush, C. J. Armstrong,          |
 | E. J. Higgins, E. L. Brown, M. S. McFly,        |
 | J. Wilkins, B-C. Shih, P. J. P. Byrne,          |
 | R. J. Maurer, J. C. Womack, J. Dziedzic,        |
 | A. Bartok-Partay, L. LeBlanc, T. K. Stenczel,   |
 | J. Kermode, S. Sturniolo, B. Shi, B. Durham     |
 | M. Evans, M. J. Smith                           |
 |                                                 |
 | Copyright (c) 2000 - 2021                       |
 |                                                 |
 |     Distributed under license from Cambridge    |
 |     Enterprise for academic use only.           |
 |                                                 |
 | Please cite                                     |
 |                                                 |
 |     "First principles methods using CASTEP"     |
 |                                                 |
 |         Zeitschrift fuer Kristallographie       |
 |           220(5-6) pp. 567-570 (2005)           |
 |                                                 |
 | S. J. Clark, M. D. Segall, C. J. Pickard,       |
 | P. J. Hasnip, M. J. Probert, K. Refson,         |
 | M. C. Payne                                     |
 |                                                 |
 |       in all publications arising from          |
 |              your use of CASTEP                 |
 |                                                 |
 +-------------------------------------------------+
 |                                                 |
 |              http://www.castep.org              |
 |                                                 |
 +-------------------------------------------------+
 
 
 
 Compiled for linux_x86_64_ifort on Wed, 18 Jan 2023 15:42:19 +0000
 from code version b807d1bba+  Castep221_branch  Wed Sep 14 11:18:35 2022 +0100
 Compiler: Intel Fortran 19.0.5.281; Optimisation: fast
 MATHLIBS: Intel MKL(2019.0.5) (LAPACK version 3.7.0)
 FFT Lib : mkl
 Fundamental constants values: CODATA 2014
 
 Run started: Wed, 26 Apr 2023 21:26:24 +0100
 
 Atomic calculation performed for Al: 1s2 2s2 2p6 3s2 3p1
 
 Converged in 52 iterations to an ae energy of -6606.982 eV
 
   ============================================================                
   | Pseudopotential Report - Date of generation 26-04-2023   |                
   ------------------------------------------------------------                
   | Element: Al Ionic charge:  3.00 Level of theory: RPBE    |                
   | Atomic Solver: Koelling-Harmon                           |                
   |                                                          |                
   |               Reference Electronic Structure             |                
   |         Orbital         Occupation         Energy        |                
   |            3s              2.000           -0.284        |                
   |            3p              1.000           -0.100        |                
   |                                                          |                
   |                 Pseudopotential Definition               |                
   |        Beta     l      e      Rc     scheme   norm       |                
   |          1      0   -0.284   2.192     qc      0         |                
   |          2      0    0.250   2.192     qc      0         |                
   |          3      1   -0.100   2.192     qc      0         |                
   |          4      1    0.250   2.192     qc      0         |                
   |          5      2    0.000   2.000     qc      0         |                
   |          6      2    0.250   2.000     qc      0         |                
   |         loc     3    0.000   2.192     pn      0         |                
   |                                                          |                
   | Augmentation charge Rinner = 1.398                       |                
   | Partial core correction Rc = 1.398                       |                
   ------------------------------------------------------------                
   | "3|2.2|2.2|1.4|4|5|5|30:31:32U2U2"                       |                
   ------------------------------------------------------------                
   |      Author: Chris J. Pickard, Cambridge University      |                
   ============================================================                
 
 Atomic calculation performed for Ni: 1s2 2s2 2p6 3s2 3p6 3d8 4s2
 
 Converged in 109 iterations to an ae energy of -41381.414 eV
 
   ============================================================                
   | Pseudopotential Report - Date of generation 26-04-2023   |                
   ------------------------------------------------------------                
   | Element: Ni Ionic charge: 10.00 Level of theory: RPBE    |                
   | Atomic Solver: Koelling-Harmon                           |                
   |                                                          |                
   |               Reference Electronic Structure             |                
   |         Orbital         Occupation         Energy        |                
   |            3d              8.000           -0.324        |                
   |            4s              2.000           -0.204        |                
   |                                                          |                
   |                 Pseudopotential Definition               |                
   |        Beta     l      e      Rc     scheme   norm       |                
   |          1      0   -0.204   2.401     qc      0         |                
   |          2      0    0.250   2.401     qc      0         |                
   |          3      1    0.000   2.401     qc      0         |                
   |          4      1    0.250   2.401     qc      0         |                
   |          5      2   -0.324   1.999     qc      0         |                
   |          6      2    0.250   1.999     qc      0         |                
   |         loc     3    0.000   2.401     pn      0         |                
   |                                                          |                
   | Augmentation charge Rinner = 1.001                       |                
   | Partial core correction Rc = 1.001                       |                
   ------------------------------------------------------------                
   | "3|2.4|2.4|1.0|8|9|10|40:41:32U2U2(qc=5.5)"              |                
   ------------------------------------------------------------                
   |      Author: Chris J. Pickard, Cambridge University      |                
   ============================================================                
 
 Pseudo atomic calculation performed for Al 3s2 3p1
 
 Converged in 13 iterations to a total energy of -107.6593 eV
 
 Pseudo atomic calculation performed for Ni 3d8 4s2
 
 Converged in 41 iterations to a total energy of -1369.7890 eV
 Calculation parallelised over 128 processes.
 Data is distributed by G-vector(128-way)

 ************************************ Title ************************************
 

 ***************************** General Parameters ******************************
  
 output verbosity                               : normal  (1)
 write checkpoint data to                       : castep.check
 type of calculation                            : geometry optimization
 stress calculation                             : off
 density difference calculation                 : off
 electron localisation func (ELF) calculation   : off
 Hirshfeld analysis                             : off
 polarisation (Berry phase) analysis            : off
 molecular orbital projected DOS                : off
 deltaSCF calculation                           : off
 unlimited duration calculation
 timing information                             : on
 memory usage estimate                          : on
 write extra output files                       : on
 write final potential to formatted file        : off
 write final density to formatted file          : off
 write BibTeX reference list                    : on
 write OTFG pseudopotential files               : on
 write electrostatic potential file             : on
 write bands file                               : on
 checkpoint writing                             : both castep_bin and check files
  
 output         length unit                     : A
 output           mass unit                     : amu
 output           time unit                     : ps
 output         charge unit                     : e
 output           spin unit                     : hbar/2
 output         energy unit                     : eV
 output          force unit                     : eV/A
 output       velocity unit                     : A/ps
 output       pressure unit                     : GPa
 output     inv_length unit                     : 1/A
 output      frequency unit                     : cm-1
 output force constant unit                     : eV/A**2
 output         volume unit                     : A**3
 output   IR intensity unit                     : (D/A)**2/amu
 output         dipole unit                     : D
 output         efield unit                     : eV/A/e
 output        entropy unit                     : J/mol/K
 output    efield chi2 unit                     : pm/V
  
 wavefunctions paging                           : none
 random number generator seed                   : randomised (212625635)
 data distribution                              : optimal for this architecture
 optimization strategy                          : maximize speed(+++)

 *********************** Exchange-Correlation Parameters ***********************
  
 using functional                               : revised Perdew Burke Ernzerhof
 relativistic treatment                         : Koelling-Harmon
 DFT+D: Semi-empirical dispersion correction    : off

 ************************* Pseudopotential Parameters **************************
  
 pseudopotential representation                 : reciprocal space
 <beta|phi> representation                      : reciprocal space
 spin-orbit coupling                            : off

 **************************** Basis Set Parameters *****************************
  
 plane wave basis set cut-off                   :   900.0000   eV
 size of standard grid                          :     1.7500
 size of   fine   gmax                          :    26.8966   1/A
 finite basis set correction                    : none

 **************************** Electronic Parameters ****************************
  
 number of  electrons                           :  2046.    
 net charge of system                           :  0.000    
 treating system as non-spin-polarized
 number of bands                                :       1135

 ********************* Electronic Minimization Parameters **********************
  
 Method: Treating system as metallic with density mixing treatment of electrons,
         and number of  SD  steps               :          1
         and number of  CG  steps               :          4
  
 total energy / atom convergence tol.           : 0.1000E-05   eV
 eigen-energy convergence tolerance             : 0.2247E-06   eV
 max force / atom convergence tol.              : ignored
 convergence tolerance window                   :          3   cycles
 max. number of SCF cycles                      :        200
 number of fixed-spin iterations                :         10
 smearing scheme                                : Gaussian
 smearing width                                 : 0.2000       eV
 Fermi energy convergence tolerance             : 0.2721E-13   eV
 periodic dipole correction                     : NONE
 periodically dump wavefunctions to             : castep.wvfn
 dump wavefunctions every                       :          1   SCF cycles

 ************************** Density Mixing Parameters **************************
  
 density-mixing scheme                          : Pulay
 max. length of mixing history                  :         20
 charge density mixing amplitude                : 0.8000    
 cut-off energy for mixing                      :  900.0       eV

 *********************** Population Analysis Parameters ************************
  
 Population analysis with cutoff                :  3.000       A
 Population analysis output                     : summary and pdos components

 ********************** Geometry Optimization Parameters ***********************
  
 optimization method                            : LBFGS
 max. no. of LBFGS updates                      : unbounded
 variable cell method                           : fixed basis quality
 max. number of steps                           :         30
 estimated bulk modulus                         :  500.0       GPa
 estimated <frequency>                          :  1668.       cm-1
 geom line minimiser                            : on
 with line minimiser tolerance                  :     0.4000
 total energy convergence tolerance             : 0.2000E-04   eV/atom
        max ionic |force| tolerance             : 0.5000E-01   eV/A
 max ionic |displacement| tolerance             : 0.1000E-02   A
   max |stress component| tolerance             : 0.1000       GPa
 convergence tolerance window                   :          2   steps
 backup results every                           :          5   steps
 write geom trajectory file                     : on

 *******************************************************************************
  
 
                           -------------------------------
                                      Unit Cell
                           -------------------------------
        Real Lattice(A)                      Reciprocal Lattice(1/A)
    14.4648280     0.0000000     0.0000000        0.434376773   0.000000000   0.000000000
     0.0000000    14.4648280     0.0000000        0.000000000   0.434376773   0.000000000
     0.0000000     0.0000000    14.4648280        0.000000000   0.000000000   0.434376773
 
                       Lattice parameters(A)       Cell Angles
                    a =     14.464828          alpha =   90.000000
                    b =     14.464828          beta  =   90.000000
                    c =     14.464828          gamma =   90.000000
 
                       Current cell volume =          3026.494030       A**3
                                   density =             4.190844   AMU/A**3
                                           =             6.959059     g/cm^3
 
                           -------------------------------
                                     Cell Contents
                           -------------------------------
                         Total number of ions in cell =  255
                      Total number of species in cell =    2
                        Max number of any one species =  183
 
            xxxxxxxxxxxxxxxxxxxxxxxxxxxxxxxxxxxxxxxxxxxxxxxxxxxxxxxxxxxx
            x  Element    Atom        Fractional coordinates of atoms  x
            x            Number           u          v          w      x
            x----------------------------------------------------------x
            x  Al           1         0.943655   0.062171   0.691801   x 
            x  Al           2         0.942609   0.313792   0.691671   x 
            x  Al           3         0.947398   0.563413   0.685874   x 
            x  Al           4         0.944144   0.811652   0.690752   x 
            x  Al           5         0.942289   0.060256   0.940268   x 
            x  Al           6         0.941946   0.314569   0.940252   x 
            x  Al           7         0.949302   0.564955   0.941808   x 
            x  Al           8         0.945887   0.810676   0.937322   x 
            x  Al           9         0.944538   0.061496   0.189444   x 
            x  Al          10         0.943023   0.313447   0.188058   x 
            x  Al          11         0.946545   0.562588   0.194059   x 
            x  Al          12         0.948994   0.811799   0.196295   x 
            x  Al          13         0.945496   0.062653   0.440539   x 
            x  Al          14         0.943730   0.312563   0.441481   x 
            x  Al          15         0.944029   0.562249   0.440244   x 
            x  Al          16         0.944772   0.812576   0.439464   x 
            x  Al          17         0.701263   0.938867   0.561459   x 
            x  Al          18         0.428016   0.809968   0.438236   x 
            x  Al          19         0.563681   0.944541   0.435465   x 
            x  Al          20         0.176151   0.929680   0.808651   x 
            x  Al          21         0.194670   0.809937   0.440208   x 
            x  Al          22         0.172263   0.569168   0.440959   x 
            x  Al          23         0.315422   0.933421   0.682936   x 
            x  Al          24         0.053109   0.819155   0.563134   x 
            x  Al          25         0.695558   0.688158   0.566662   x 
            x  Al          26         0.566544   0.684221   0.433258   x 
            x  Al          27         0.312728   0.450951   0.687310   x 
            x  Al          28         0.173921   0.434262   0.566314   x 
            x  Al          29         0.699515   0.183682   0.563660   x 
            x  Al          30         0.448751   0.437424   0.559490   x 
            x  Al          31         0.311125   0.189659   0.452193   x 
            x  Al          32         0.569362   0.941507   0.200249   x 
            x  Al          33         0.061941   0.810499   0.308433   x 
            x  Al          34         0.437832   0.564011   0.193724   x 
            x  Al          35         0.309071   0.562509   0.317979   x 
            x  Al          36         0.697466   0.432711   0.322093   x 
            x  Al          37         0.564790   0.430559   0.197670   x 
            x  Al          38         0.309367   0.321486   0.313859   x 
            x  Al          39         0.072412   0.440564   0.188990   x 
            x  Al          40         0.700326   0.187920   0.316062   x 
            x  Al          41         0.690703   0.439919   0.559603   x 
            x  Al          42         0.556690   0.314645   0.057731   x 
            x  Al          43         0.553467   0.183309   0.193857   x 
            x  Al          44         0.309560   0.058581   0.311938   x 
            x  Al          45         0.065884   0.188733   0.201898   x 
            x  Al          46         0.690845   0.814386   0.939308   x 
            x  Al          47         0.812235   0.811681   0.073119   x 
            x  Al          48         0.560216   0.808272   0.811054   x 
            x  Al          49         0.440335   0.935818   0.067058   x 
            x  Al          50         0.314166   0.928724   0.933994   x 
            x  Al          51         0.804957   0.563714   0.066058   x 
            x  Al          52         0.443305   0.700545   0.068314   x 
            x  Al          53         0.573146   0.563684   0.059692   x 
            x  Al          54         0.314463   0.691004   0.938622   x 
            x  Al          55         0.697279   0.317112   0.930468   x 
            x  Al          56         0.189770   0.308642   0.936742   x 
            x  Al          57         0.320153   0.448511   0.941767   x 
            x  Al          58         0.058340   0.311393   0.060564   x 
            x  Al          59         0.697308   0.179715   0.065692   x 
            x  Al          60         0.556133   0.176171   0.931439   x 
            x  Al          61         0.189935   0.069335   0.936285   x 
            x  Al          62         0.062388   0.062811   0.066747   x 
            x  Al          63         0.560140   0.940997   0.683111   x 
            x  Al          64         0.808154   0.566930   0.815548   x 
            x  Al          65         0.565051   0.566304   0.813799   x 
            x  Al          66         0.316175   0.681643   0.677153   x 
            x  Al          67         0.181655   0.688491   0.815667   x 
            x  Al          68         0.051617   0.683435   0.690239   x 
            x  Al          69         0.557541   0.181379   0.692658   x 
            x  Al          70         0.554720   0.187925   0.440669   x 
            x  Al          71         0.695846   0.314949   0.700213   x 
            x  Al          72         0.319475   0.307928   0.807434   x 
            x  Ni           1         0.940975   0.186448   0.816429   x 
            x  Ni           2         0.940806   0.443688   0.814641   x 
            x  Ni           3         0.941031   0.684756   0.814075   x 
            x  Ni           4         0.941581   0.936271   0.815148   x 
            x  Ni           5         0.818874   0.187032   0.188744   x 
            x  Ni           6         0.939075   0.441298   0.066533   x 
            x  Ni           7         0.939585   0.687459   0.067950   x 
            x  Ni           8         0.940797   0.933327   0.066281   x 
            x  Ni           9         0.941345   0.188060   0.314188   x 
            x  Ni          10         0.940614   0.436787   0.315564   x 
            x  Ni          11         0.942620   0.686644   0.317296   x 
            x  Ni          12         0.943301   0.938035   0.316001   x 
            x  Ni          13         0.940448   0.188488   0.567133   x 
            x  Ni          14         0.941282   0.437333   0.564926   x 
            x  Ni          15         0.941702   0.688157   0.563683   x 
            x  Ni          16         0.941241   0.936668   0.565490   x 
            x  Ni          17         0.062412   0.062561   0.815370   x 
            x  Ni          18         0.062372   0.185816   0.690909   x 
            x  Ni          19         0.189763   0.187256   0.810960   x 
            x  Ni          20         0.309187   0.055535   0.811501   x 
            x  Ni          21         0.313759   0.185579   0.685961   x 
            x  Ni          22         0.186173   0.059188   0.689567   x 
            x  Ni          23         0.435754   0.182729   0.811286   x 
            x  Ni          24         0.562736   0.056951   0.811649   x 
            x  Ni          25         0.435417   0.058926   0.686434   x 
            x  Ni          26         0.688492   0.185240   0.814716   x 
            x  Ni          27         0.816704   0.059363   0.816019   x 
            x  Ni          28         0.689138   0.441099   0.813377   x 
            x  Ni          29         0.692078   0.061220   0.689100   x 
            x  Ni          30         0.063289   0.311715   0.817161   x 
            x  Ni          31         0.061741   0.438122   0.695356   x 
            x  Ni          32         0.193001   0.437982   0.816646   x 
            x  Ni          33         0.439900   0.316061   0.688705   x 
            x  Ni          34         0.187745   0.314410   0.692539   x 
            x  Ni          35         0.437588   0.442343   0.812204   x 
            x  Ni          36         0.689507   0.564627   0.937843   x 
            x  Ni          37         0.820768   0.315394   0.815883   x 
            x  Ni          38         0.817130   0.441049   0.689932   x 
            x  Ni          39         0.566573   0.437910   0.688833   x 
            x  Ni          40         0.061489   0.562693   0.817318   x 
            x  Ni          41         0.313771   0.569832   0.813178   x 
            x  Ni          42         0.184459   0.565130   0.687966   x 
            x  Ni          43         0.438922   0.688090   0.810652   x 
            x  Ni          44         0.690982   0.563092   0.688202   x 
            x  Ni          45         0.565242   0.689222   0.684972   x 
            x  Ni          46         0.688281   0.691075   0.812137   x 
            x  Ni          47         0.817732   0.443127   0.940197   x 
            x  Ni          48         0.817756   0.687758   0.689630   x 
            x  Ni          49         0.056861   0.810075   0.813602   x 
            x  Ni          50         0.057923   0.937259   0.688255   x 
            x  Ni          51         0.182436   0.807889   0.686339   x 
            x  Ni          52         0.310917   0.807313   0.806550   x 
            x  Ni          53         0.179551   0.688042   0.566302   x 
            x  Ni          54         0.311409   0.809803   0.564067   x 
            x  Ni          55         0.437348   0.932708   0.810269   x 
            x  Ni          56         0.689762   0.815619   0.686687   x 
            x  Ni          57         0.439852   0.811070   0.682875   x 
            x  Ni          58         0.687853   0.934184   0.812295   x 
            x  Ni          59         0.816156   0.810699   0.815162   x 
            x  Ni          60         0.817914   0.936625   0.690886   x 
            x  Ni          61         0.566882   0.814182   0.556693   x 
            x  Ni          62         0.062535   0.186839   0.939811   x 
            x  Ni          63         0.186452   0.188028   0.065122   x 
            x  Ni          64         0.311774   0.060208   0.063022   x 
            x  Ni          65         0.315101   0.186519   0.937221   x 
            x  Ni          66         0.438653   0.185043   0.062668   x 
            x  Ni          67         0.564038   0.061039   0.066088   x 
            x  Ni          68         0.433971   0.055459   0.938450   x 
            x  Ni          69         0.818987   0.058690   0.064895   x 
            x  Ni          70         0.815735   0.186166   0.938832   x 
            x  Ni          71         0.691406   0.059693   0.938604   x 
            x  Ni          72         0.064368   0.437588   0.939330   x 
            x  Ni          73         0.189605   0.438093   0.060370   x 
            x  Ni          74         0.314297   0.314487   0.062223   x 
            x  Ni          75         0.442331   0.442664   0.067299   x 
            x  Ni          76         0.435541   0.313283   0.936379   x 
            x  Ni          77         0.562027   0.438613   0.936520   x 
            x  Ni          78         0.562535   0.311362   0.815603   x 
            x  Ni          79         0.686172   0.433283   0.064377   x 
            x  Ni          80         0.939644   0.187370   0.063862   x 
            x  Ni          81         0.814940   0.313630   0.062277   x 
            x  Ni          82         0.062991   0.563454   0.064901   x 
            x  Ni          83         0.061852   0.687789   0.940949   x 
            x  Ni          84         0.188722   0.690166   0.062735   x 
            x  Ni          85         0.317243   0.568344   0.065706   x 
            x  Ni          86         0.189424   0.565357   0.940138   x 
            x  Ni          87         0.439454   0.813287   0.938795   x 
            x  Ni          88         0.442350   0.570006   0.941948   x 
            x  Ni          89         0.688231   0.690960   0.067807   x 
            x  Ni          90         0.816474   0.689091   0.942269   x 
            x  Ni          91         0.564552   0.692156   0.939718   x 
            x  Ni          92         0.061393   0.814613   0.065176   x 
            x  Ni          93         0.062496   0.939025   0.941094   x 
            x  Ni          94         0.187978   0.938361   0.061388   x 
            x  Ni          95         0.313216   0.813913   0.065491   x 
            x  Ni          96         0.186330   0.812393   0.937744   x 
            x  Ni          97         0.568084   0.817549   0.068143   x 
            x  Ni          98         0.563373   0.936818   0.937954   x 
            x  Ni          99         0.689663   0.938854   0.067630   x 
            x  Ni         100         0.816150   0.933204   0.941029   x 
            x  Ni         101         0.064523   0.060641   0.315187   x 
            x  Ni         102         0.194616   0.189165   0.318500   x 
            x  Ni         103         0.188559   0.061544   0.440318   x 
            x  Ni         104         0.313300   0.188559   0.188844   x 
            x  Ni         105         0.187715   0.062752   0.189123   x 
            x  Ni         106         0.435693   0.059530   0.190408   x 
            x  Ni         107         0.820810   0.062326   0.314815   x 
            x  Ni         108         0.692209   0.064879   0.192636   x 
            x  Ni         109         0.063880   0.314292   0.316010   x 
            x  Ni         110         0.185170   0.442012   0.320248   x 
            x  Ni         111         0.311174   0.440736   0.188733   x 
            x  Ni         112         0.187638   0.313823   0.188054   x 
            x  Ni         113         0.435843   0.437853   0.317525   x 
            x  Ni         114         0.436228   0.313818   0.189409   x 
            x  Ni         115         0.563918   0.306389   0.316015   x 
            x  Ni         116         0.819308   0.312255   0.313821   x 
            x  Ni         117         0.814579   0.436998   0.189651   x 
            x  Ni         118         0.688063   0.306959   0.188081   x 
            x  Ni         119         0.056270   0.563989   0.311597   x 
            x  Ni         120         0.062071   0.687941   0.186110   x 
            x  Ni         121         0.186181   0.687803   0.314519   x 
            x  Ni         122         0.314708   0.688458   0.189637   x 
            x  Ni         123         0.188904   0.565695   0.189562   x 
            x  Ni         124         0.436942   0.686364   0.316614   x 
            x  Ni         125         0.565657   0.558607   0.314073   x 
            x  Ni         126         0.564189   0.687428   0.193281   x 
            x  Ni         127         0.691247   0.686699   0.315806   x 
            x  Ni         128         0.817790   0.561837   0.314136   x 
            x  Ni         129         0.816349   0.686337   0.192208   x 
            x  Ni         130         0.688832   0.558993   0.192598   x 
            x  Ni         131         0.060544   0.937854   0.188643   x 
            x  Ni         132         0.186433   0.934807   0.313980   x 
            x  Ni         133         0.310733   0.810942   0.315054   x 
            x  Ni         134         0.312474   0.936639   0.189050   x 
            x  Ni         135         0.187345   0.811931   0.188889   x 
            x  Ni         136         0.437353   0.937940   0.316585   x 
            x  Ni         137         0.563621   0.813517   0.319996   x 
            x  Ni         138         0.440862   0.815669   0.194063   x 
            x  Ni         139         0.692141   0.940492   0.318962   x 
            x  Ni         140         0.818695   0.812181   0.314177   x 
            x  Ni         141         0.816877   0.937255   0.192598   x 
            x  Ni         142         0.690253   0.814182   0.195367   x 
            x  Ni         143         0.062366   0.060753   0.563330   x 
            x  Ni         144         0.065095   0.186031   0.438432   x 
            x  Ni         145         0.185044   0.189043   0.567704   x 
            x  Ni         146         0.309635   0.061006   0.565335   x 
            x  Ni         147         0.428117   0.189428   0.317849   x 
            x  Ni         148         0.184796   0.934573   0.564892   x 
            x  Ni         149         0.438595   0.189786   0.566549   x 
            x  Ni         150         0.566504   0.063745   0.562468   x 
            x  Ni         151         0.563164   0.068966   0.317304   x 
            x  Ni         152         0.433139   0.063699   0.439897   x 
            x  Ni         153         0.693177   0.307175   0.441810   x 
            x  Ni         154         0.821382   0.061865   0.565736   x 
            x  Ni         155         0.821464   0.187369   0.440565   x 
            x  Ni         156         0.693735   0.065914   0.439627   x 
            x  Ni         157         0.058598   0.310226   0.567043   x 
            x  Ni         158         0.050698   0.437023   0.440568   x 
            x  Ni         159         0.307727   0.449005   0.451154   x 
            x  Ni         160         0.186804   0.315027   0.442645   x 
            x  Ni         161         0.441648   0.562905   0.683717   x 
            x  Ni         162         0.570803   0.308165   0.569231   x 
            x  Ni         163         0.567624   0.433477   0.437092   x 
            x  Ni         164         0.434022   0.314972   0.441747   x 
            x  Ni         165         0.816674   0.186629   0.692923   x 
            x  Ni         166         0.818576   0.436759   0.441357   x 
            x  Ni         167         0.815624   0.313702   0.568965   x 
            x  Ni         168         0.054980   0.563115   0.565780   x 
            x  Ni         169         0.059014   0.695462   0.439178   x 
            x  Ni         170         0.309509   0.677924   0.447265   x 
            x  Ni         171         0.311404   0.319986   0.569629   x 
            x  Ni         172         0.443003   0.685864   0.558955   x 
            x  Ni         173         0.568816   0.563801   0.561434   x 
            x  Ni         174         0.439814   0.561974   0.438983   x 
            x  Ni         175         0.817790   0.563309   0.564969   x 
            x  Ni         176         0.817538   0.688035   0.439246   x 
            x  Ni         177         0.693913   0.563419   0.438757   x 
            x  Ni         178         0.062093   0.934808   0.436500   x 
            x  Ni         179         0.311813   0.938026   0.440423   x 
            x  Ni         180         0.439617   0.936353   0.559243   x 
            x  Ni         181         0.693398   0.812482   0.439236   x 
            x  Ni         182         0.819000   0.811974   0.564940   x 
            x  Ni         183         0.819431   0.937418   0.438447   x 
            xxxxxxxxxxxxxxxxxxxxxxxxxxxxxxxxxxxxxxxxxxxxxxxxxxxxxxxxxxxx
 
 
                         No user defined ionic velocities
 
                           -------------------------------
                                   Details of Species
                           -------------------------------
 
                               Mass of species in AMU
                                    Al   26.9815400
                                    Ni   58.6934000
 
                          Electric Quadrupole Moment (Barn)
                                    Al    0.1466000 Isotope 27
                                    Ni    0.1620000 Isotope 61
 
                          Files used for pseudopotentials:
                                    Al 3|2.2|2.2|1.4|4|5|5|30:31:32U2U2
                                    Ni 3|2.4|2.4|1.0|8|9|10|40:41:32U2U2(qc=5.5)
 
                           -------------------------------
                              k-Points For BZ Sampling
                           -------------------------------
                       MP grid size for SCF calculation is  1  1  1
                            with an offset of   0.000  0.000  0.000
                       Number of kpoints used =             1
 
                           -------------------------------
                               Symmetry and Constraints
                           -------------------------------
 
                      Maximum deviation from symmetry =  0.00000         ANG
 
                      Number of symmetry operations   =           1
                      Number of ionic constraints     =           3
                      Point group of crystal =     1: C1, 1, 1
                      Space group of crystal =     1: P1, P 1
 
             Set iprint > 1 for details on symmetry rotations/translations
 
                         Centre of mass is constrained
             Set iprint > 1 for details of linear ionic constraints
 
                         Number of cell constraints= 6
                         Cell constraints are:  0 0 0 0 0 0
 
                         External pressure/stress (GPa)
                          0.00000   0.00000   0.00000
                                    0.00000   0.00000
                                              0.00000
 
+---------------- MEMORY AND SCRATCH DISK ESTIMATES PER PROCESS --------------+
|                                                     Memory          Disk    |
| Baseline code, static data and system overhead      855.0 MB         0.0 MB |
| BLAS internal memory storage                          0.0 MB         0.0 MB |
| Model and support data                              335.0 MB         0.0 MB |
| Electronic energy minimisation requirements          66.7 MB         0.0 MB |
| Force calculation requirements                        1.7 MB         0.0 MB |
|                                               ----------------------------- |
| Approx. total storage required per process         1256.7 MB         0.0 MB |
|                                                                             |
| Requirements will fluctuate during execution and may exceed these estimates |
+-----------------------------------------------------------------------------+
Calculating approximate eigenstates for fixed initial Hamiltonian
Cut-off for approx. calculation is  550.359 eV
Resetting cut-off to  900.000 eV
Calculating total energy with cut-off of  900.000 eV.
------------------------------------------------------------------------ <-- SCF
SCF loop      Energy           Fermi           Energy gain       Timer   <-- SCF
                               energy          per atom          (sec)   <-- SCF
------------------------------------------------------------------------ <-- SCF
Initial  -2.60435934E+005  0.00000000E+000                      1392.54  <-- SCF
      1  -2.59956150E+005  3.35288028E+000  -1.88150539E+000    1423.43  <-- SCF
      2  -2.60101850E+005  3.42862229E+000   5.71371332E-001    1464.98  <-- SCF
      3  -2.61315071E+005  9.05474532E+000   4.75772757E+000    1511.22  <-- SCF
      4  -2.61374512E+005  9.03899382E+000   2.33102943E-001    1543.95  <-- SCF
      5  -2.60172162E+005  6.55420280E+000  -4.71509585E+000    1588.44  <-- SCF
      6  -2.60370423E+005  6.55626118E+000   7.77494405E-001    1629.28  <-- SCF
      7  -2.60050843E+005  4.92831061E+000  -1.25325874E+000    1676.62  <-- SCF
      8  -2.60004257E+005  4.60658808E+000  -1.82688479E-001    1709.33  <-- SCF
      9  -2.59999427E+005  4.58812992E+000  -1.89391573E-002    1740.94  <-- SCF
     10  -2.60000305E+005  4.66547560E+000   3.44201060E-003    1778.81  <-- SCF
     11  -2.59994932E+005  4.63857506E+000  -2.10706392E-002    1810.52  <-- SCF
     12  -2.59996253E+005  4.63759710E+000   5.18166472E-003    1843.21  <-- SCF
     13  -2.59996862E+005  4.59535961E+000   2.38506374E-003    1879.19  <-- SCF
     14  -2.59994288E+005  4.57351882E+000  -1.00923962E-002    1913.04  <-- SCF
     15  -2.59994479E+005  4.58295309E+000   7.49452400E-004    1944.58  <-- SCF
     16  -2.59994072E+005  4.58787155E+000  -1.59587996E-003    1975.95  <-- SCF
     17  -2.59993840E+005  4.58685835E+000  -9.09667453E-004    2007.01  <-- SCF
     18  -2.59993854E+005  4.58671308E+000   5.20394557E-005    2038.41  <-- SCF
     19  -2.59993840E+005  4.58597353E+000  -5.16902553E-005    2069.40  <-- SCF
     20  -2.59993821E+005  4.58574362E+000  -7.60196173E-005    2099.82  <-- SCF
     21  -2.59993824E+005  4.58601308E+000   1.04064369E-005    2130.26  <-- SCF
     22  -2.59993823E+005  4.58687245E+000  -4.57683272E-006    2160.27  <-- SCF
     23  -2.59993820E+005  4.58710306E+000  -1.12031302E-005    2190.63  <-- SCF
     24  -2.59993820E+005  4.58710932E+000   3.77433406E-007    2214.21  <-- SCF
     25  -2.59993820E+005  4.58689817E+000  -1.39326530E-007    2235.28  <-- SCF
------------------------------------------------------------------------ <-- SCF
 
Final energy, E             =  -259989.6395116     eV
Final free energy (E-TS)    =  -259993.8197079     eV
(energies not corrected for finite basis set)
 
NB est. 0K energy (E-0.5TS)      =  -259991.7296097     eV
 

Writing analysis data to castep.castep_bin

Writing model to castep.check
 
+---------------- MEMORY AND SCRATCH DISK ESTIMATES PER PROCESS --------------+
|                                                     Memory          Disk    |
| Model and support data                              345.7 MB         0.0 MB |
| Electronic energy minimisation requirements          66.7 MB         0.0 MB |
| Geometry minimisation requirements                   80.9 MB         0.0 MB |
|                                               ----------------------------- |
| Approx. total storage required per process          493.3 MB         0.0 MB |
|                                                                             |
| Requirements will fluctuate during execution and may exceed these estimates |
+-----------------------------------------------------------------------------+
 
 
 ************************************** Forces **************************************
 *                                                                                  *
 *                           Cartesian components (eV/A)                            *
 * -------------------------------------------------------------------------------- *
 *                         x                    y                    z              *
 *                                                                                  *
 * Al              1     -0.43608              0.12043             -0.09647         *
 * Al              2     -0.24775             -0.12412              0.09402         *
 * Al              3     -2.42518             -2.03939              0.25932         *
 * Al              4     -2.84180              1.25989              1.08284         *
 * Al              5     -1.13810              0.01407             -0.89479         *
 * Al              6     -1.52273              0.03442             -1.34069         *
 * Al              7     -0.33726             -0.12406              0.07302         *
 * Al              8     -0.43186              0.08914              0.03509         *
 * Al              9     -2.16546             -0.64075              1.04733         *
 * Al             10     -2.45055              0.27728              1.05630         *
 * Al             11     -1.41997              0.63180             -0.32265         *
 * Al             12     -2.28757              0.01843             -1.71361         *
 * Al             13     -0.50299              0.02124             -0.03510         *
 * Al             14     -0.65513             -0.46817             -0.07006         *
 * Al             15     -0.92933              0.27335             -0.11741         *
 * Al             16     -2.87485              0.27923             -0.79421         *
 * Al             17      0.19243              0.02016              0.11203         *
 * Al             18     -0.09127              0.12457              0.06647         *
 * Al             19      0.02894             -0.06725             -0.10433         *
 * Al             20     -0.15028              0.01541             -0.14761         *
 * Al             21      0.36178              0.13004              0.05697         *
 * Al             22      0.28304             -0.05970             -0.00158         *
 * Al             23      0.02706              0.07344             -0.11255         *
 * Al             24      2.85054             -0.04789              0.29923         *
 * Al             25      0.18402              0.04043              0.20547         *
 * Al             26     -0.00590             -0.22816             -0.08829         *
 * Al             27      0.03953              0.01063              0.19332         *
 * Al             28     -0.01224             -0.16624             -0.09362         *
 * Al             29      0.28040             -0.25316             -0.05269         *
 * Al             30     -0.10896              0.01034             -0.02953         *
 * Al             31     -0.10101              0.07069              0.04926         *
 * Al             32      0.14425             -0.16040             -0.05857         *
 * Al             33      2.43396              0.11450              1.08225         *
 * Al             34     -0.10309             -0.06711              0.01071         *
 * Al             35     -0.05307              0.07949              0.15499         *
 * Al             36      0.14223              0.17420             -0.04173         *
 * Al             37      0.01376             -0.02001              0.01890         *
 * Al             38      0.02219              0.01417              0.06002         *
 * Al             39      0.95474              0.08754              0.55198         *
 * Al             40      0.07207             -0.09746             -0.10260         *
 * Al             41      0.11475              0.15062              0.06013         *
 * Al             42     -0.38314              0.29451              0.13214         *
 * Al             43     -0.22691             -0.10678              0.06931         *
 * Al             44      0.14945             -0.08050             -0.01125         *
 * Al             45      1.75897              0.01708              0.21303         *
 * Al             46     -0.25648             -0.07133             -0.02386         *
 * Al             47     -0.07884              0.13291              0.14600         *
 * Al             48     -0.30004              0.05195             -0.02764         *
 * Al             49     -0.03224              0.03566             -0.05270         *
 * Al             50      0.03560             -0.08548              0.11235         *
 * Al             51     -0.16352             -0.01319              0.04408         *
 * Al             52     -0.01945              0.13385             -0.07688         *
 * Al             53      0.16409             -0.07701             -0.18254         *
 * Al             54      0.13511             -0.01929              0.16692         *
 * Al             55      0.09929              0.37956             -0.22917         *
 * Al             56     -0.05491             -0.15650              0.08164         *
 * Al             57      0.13734              0.15661              0.11347         *
 * Al             58      2.08588             -0.00127              0.13281         *
 * Al             59      0.52002             -0.27670              0.03987         *
 * Al             60     -0.14664             -0.22710             -0.24614         *
 * Al             61      0.06022              0.22507              0.01999         *
 * Al             62      1.58121             -0.38586             -0.35620         *
 * Al             63     -0.02730              0.06315              0.08799         *
 * Al             64     -0.09452             -0.17906             -0.16012         *
 * Al             65     -0.12618             -0.00516             -0.17921         *
 * Al             66      0.04264             -0.04669             -0.20833         *
 * Al             67      0.05605             -0.04422              0.05262         *
 * Al             68      3.08266              0.54915             -0.19374         *
 * Al             69     -0.11914              0.00303              0.20027         *
 * Al             70     -0.12565              0.14919              0.08810         *
 * Al             71     -0.07117              0.11882              0.16782         *
 * Al             72      0.09512             -0.31723             -0.16288         *
 * Ni              1     -0.17948              0.09930              0.00629         *
 * Ni              2     -0.33533             -0.12554              0.28161         *
 * Ni              3     -0.71561             -0.22170              0.24656         *
 * Ni              4     -0.34820              0.13568              0.16512         *
 * Ni              5      0.14294              0.04847             -0.05190         *
 * Ni              6      0.22364             -0.31809              0.17693         *
 * Ni              7     -0.21318              0.03783             -0.16163         *
 * Ni              8     -0.42831              0.19208             -0.08703         *
 * Ni              9     -0.12761             -0.04707             -0.08916         *
 * Ni             10     -0.39672             -0.07296             -0.79429         *
 * Ni             11     -0.59674              0.48978             -0.41280         *
 * Ni             12     -0.38446             -0.32667             -0.24332         *
 * Ni             13     -0.15881             -0.23750             -0.06729         *
 * Ni             14     -0.54536             -0.13352              0.50978         *
 * Ni             15     -0.59567              0.63675              0.31883         *
 * Ni             16     -0.71770              0.08846             -0.32755         *
 * Ni             17      0.44750              0.05150             -0.04403         *
 * Ni             18      0.38107              0.15657              0.10423         *
 * Ni             19     -0.14909             -0.02554             -0.07688         *
 * Ni             20      0.00522              0.01478              0.21029         *
 * Ni             21     -0.26404              0.02893              0.03583         *
 * Ni             22      0.03854              0.12106             -0.08470         *
 * Ni             23     -0.05456             -0.11082              0.10960         *
 * Ni             24      0.09126             -0.10958              0.12745         *
 * Ni             25     -0.02708              0.23223             -0.05714         *
 * Ni             26      0.24378             -0.13686              0.11624         *
 * Ni             27     -0.32766              0.16395             -0.08337         *
 * Ni             28      0.03885             -0.01222              0.21316         *
 * Ni             29      0.03239             -0.07150              0.08025         *
 * Ni             30      0.29104              0.14802             -0.28560         *
 * Ni             31      0.34438             -0.16470             -0.02415         *
 * Ni             32      0.01844             -0.02692              0.15829         *
 * Ni             33     -0.04891              0.06911             -0.16661         *
 * Ni             34      0.08659             -0.00488             -0.13959         *
 * Ni             35      0.03772             -0.34263              0.06642         *
 * Ni             36     -0.20844              0.05450              0.07074         *
 * Ni             37     -0.03342             -0.06879             -0.11882         *
 * Ni             38     -0.07889             -0.00633              0.02278         *
 * Ni             39      0.10131             -0.06867              0.11671         *
 * Ni             40      0.76193             -0.07487             -0.40609         *
 * Ni             41     -0.10231              0.01216             -0.18604         *
 * Ni             42      0.07432             -0.11895              0.24437         *
 * Ni             43      0.01111             -0.10648              0.01501         *
 * Ni             44     -0.20112              0.05346             -0.08242         *
 * Ni             45      0.03206             -0.15295             -0.12033         *
 * Ni             46      0.22943              0.19194              0.04340         *
 * Ni             47     -0.01932              0.13372             -0.06464         *
 * Ni             48      0.01600              0.00516              0.14273         *
 * Ni             49      0.78630             -0.14057             -0.14022         *
 * Ni             50      0.51160              0.03517             -0.09841         *
 * Ni             51      0.14640             -0.13132              0.09633         *
 * Ni             52      0.16049              0.13817              0.19686         *
 * Ni             53     -0.03448              0.02179             -0.25699         *
 * Ni             54      0.04711             -0.13935              0.14998         *
 * Ni             55      0.20126              0.24581             -0.02666         *
 * Ni             56      0.04296              0.06407              0.16168         *
 * Ni             57      0.23174             -0.13099             -0.05793         *
 * Ni             58      0.15949              0.05709              0.08880         *
 * Ni             59     -0.03640              0.04478             -0.25933         *
 * Ni             60     -0.05786             -0.06610              0.18451         *
 * Ni             61     -0.13793              0.01345              0.07455         *
 * Ni             62      0.13702              0.02058             -0.19278         *
 * Ni             63      0.15939              0.07846              0.23515         *
 * Ni             64      0.10990             -0.01429              0.09369         *
 * Ni             65      0.06256              0.07894              0.12735         *
 * Ni             66     -0.07356              0.15713              0.00221         *
 * Ni             67      0.14930              0.10809             -0.15870         *
 * Ni             68     -0.01611              0.04585             -0.12601         *
 * Ni             69     -0.15407             -0.12870              0.02384         *
 * Ni             70     -0.03279             -0.07332             -0.16199         *
 * Ni             71     -0.19308             -0.12671              0.03705         *
 * Ni             72      0.26941             -0.26571              0.12251         *
 * Ni             73     -0.01131             -0.05834              0.11489         *
 * Ni             74      0.00237             -0.08856              0.01570         *
 * Ni             75      0.14814             -0.00469              0.24924         *
 * Ni             76      0.01898              0.04607              0.03456         *
 * Ni             77      0.03839             -0.07642              0.00131         *
 * Ni             78     -0.19955              0.16059             -0.12960         *
 * Ni             79      0.05549             -0.12500             -0.01408         *
 * Ni             80      0.22706             -0.05915              0.50239         *
 * Ni             81     -0.10309              0.07175              0.22313         *
 * Ni             82      0.70980              0.00214              0.07151         *
 * Ni             83      0.37106              0.16269              0.34455         *
 * Ni             84     -0.22552             -0.19401              0.28232         *
 * Ni             85     -0.30368              0.16106              0.08759         *
 * Ni             86     -0.04473             -0.01914             -0.02545         *
 * Ni             87     -0.00096             -0.04635             -0.05009         *
 * Ni             88     -0.09348             -0.00132             -0.05671         *
 * Ni             89      0.11321              0.13005              0.03314         *
 * Ni             90     -0.21016             -0.01260             -0.04310         *
 * Ni             91      0.29548             -0.06770              0.01517         *
 * Ni             92      0.74383             -0.23648             -0.17060         *
 * Ni             93      0.34564              0.17053              0.13025         *
 * Ni             94     -0.01477              0.10118              0.20493         *
 * Ni             95     -0.21847             -0.03471              0.11824         *
 * Ni             96      0.03272              0.03675              0.11628         *
 * Ni             97     -0.11481              0.03634              0.19277         *
 * Ni             98      0.25484              0.06076             -0.08303         *
 * Ni             99      0.32249              0.13932             -0.20992         *
 * Ni            100     -0.07176             -0.03342              0.06475         *
 * Ni            101      0.38974              0.07858             -0.08834         *
 * Ni            102     -0.10311             -0.03154              0.06519         *
 * Ni            103     -0.07498              0.06565              0.01086         *
 * Ni            104     -0.13492             -0.04416             -0.28830         *
 * Ni            105      0.04363             -0.03930             -0.14830         *
 * Ni            106      0.04895              0.12577             -0.13386         *
 * Ni            107     -0.34328             -0.06351              0.13720         *
 * Ni            108     -0.00415              0.01595              0.07572         *
 * Ni            109      0.31537              0.08091             -0.15243         *
 * Ni            110     -0.07001             -0.10368              0.04879         *
 * Ni            111     -0.00048              0.06651             -0.10708         *
 * Ni            112     -0.01715             -0.04928             -0.21743         *
 * Ni            113      0.11765              0.14686              0.00374         *
 * Ni            114      0.15256             -0.07263             -0.14283         *
 * Ni            115     -0.09058              0.07255              0.15203         *
 * Ni            116     -0.08794             -0.06291              0.15824         *
 * Ni            117     -0.02093              0.01410             -0.18213         *
 * Ni            118     -0.11366              0.03536             -0.22766         *
 * Ni            119      1.09832              0.01484              0.28800         *
 * Ni            120      0.65939              0.05247              0.23572         *
 * Ni            121     -0.05293             -0.00247             -0.06220         *
 * Ni            122     -0.13703              0.12533              0.22186         *
 * Ni            123      0.15446              0.06758             -0.25761         *
 * Ni            124     -0.08106              0.17310             -0.08951         *
 * Ni            125      0.06342             -0.08275              0.02686         *
 * Ni            126     -0.08176             -0.11636             -0.29319         *
 * Ni            127      0.26879              0.04902             -0.29807         *
 * Ni            128     -0.22134              0.08875              0.20911         *
 * Ni            129     -0.14497             -0.05714              0.08469         *
 * Ni            130     -0.22974              0.13978              0.22630         *
 * Ni            131      0.90319              0.02349              0.00798         *
 * Ni            132     -0.08438             -0.00936             -0.03013         *
 * Ni            133      0.11955              0.05134             -0.39601         *
 * Ni            134     -0.32363             -0.29313              0.07489         *
 * Ni            135      0.18112              0.12667             -0.24767         *
 * Ni            136     -0.12764             -0.03447              0.00706         *
 * Ni            137      0.03924             -0.15264              0.05324         *
 * Ni            138     -0.10690              0.03305              0.18518         *
 * Ni            139      0.29716             -0.13020             -0.16280         *
 * Ni            140     -0.30887              0.05150              0.17536         *
 * Ni            141     -0.09726              0.00333             -0.03654         *
 * Ni            142     -0.13148             -0.14068              0.10939         *
 * Ni            143      0.46943              0.10845              0.24518         *
 * Ni            144      0.31549              0.18221              0.13885         *
 * Ni            145     -0.11547             -0.07686             -0.02780         *
 * Ni            146      0.21552             -0.10322             -0.01612         *
 * Ni            147     -0.09800             -0.04582             -0.02893         *
 * Ni            148     -0.02237              0.18190             -0.21814         *
 * Ni            149     -0.16219             -0.10024              0.05912         *
 * Ni            150     -0.11378             -0.03846              0.02763         *
 * Ni            151     -0.04194              0.01756              0.03014         *
 * Ni            152      0.11324              0.03960              0.18707         *
 * Ni            153     -0.03863             -0.09494             -0.09501         *
 * Ni            154     -0.19102              0.11941             -0.04446         *
 * Ni            155      0.00032              0.06670              0.10665         *
 * Ni            156      0.05756             -0.08612             -0.09711         *
 * Ni            157      0.50508             -0.03835             -0.01440         *
 * Ni            158      1.62291              0.07519             -0.27667         *
 * Ni            159     -0.21069             -0.08993             -0.02877         *
 * Ni            160      0.00864             -0.11297             -0.13977         *
 * Ni            161      0.09277              0.01940              0.02447         *
 * Ni            162      0.24205             -0.23995             -0.03709         *
 * Ni            163     -0.14818              0.20644             -0.04552         *
 * Ni            164      0.14216              0.00676             -0.12075         *
 * Ni            165     -0.00420              0.00935              0.08227         *
 * Ni            166      0.09754             -0.01081              0.11586         *
 * Ni            167     -0.22690             -0.07172             -0.19410         *
 * Ni            168      1.24143             -0.08843             -0.08937         *
 * Ni            169      0.64542              0.00187              0.05304         *
 * Ni            170      0.02449             -0.14985             -0.09835         *
 * Ni            171      0.03804              0.14607              0.20193         *
 * Ni            172      0.04100              0.03290              0.10648         *
 * Ni            173     -0.23527              0.12738              0.07802         *
 * Ni            174      0.23234             -0.21903              0.07157         *
 * Ni            175     -0.00670             -0.12383             -0.13446         *
 * Ni            176     -0.05690             -0.09762             -0.24099         *
 * Ni            177      0.08123              0.13635             -0.07278         *
 * Ni            178      0.70683             -0.24910              0.27125         *
 * Ni            179     -0.26529              0.12281              0.13849         *
 * Ni            180     -0.25370              0.15552             -0.09218         *
 * Ni            181      0.08542             -0.00853             -0.14810         *
 * Ni            182     -0.03716              0.03456             -0.13705         *
 * Ni            183      0.05895              0.05691             -0.18756         *
 *                                                                                  *
 ************************************************************************************
 LBFGS: finished iteration     0 with enthalpy= -2.59993820E+005 eV
  
 +-----------+-----------------+-----------------+------------+-----+ <-- LBFGS
 | Parameter |      value      |    tolerance    |    units   | OK? | <-- LBFGS
 +-----------+-----------------+-----------------+------------+-----+ <-- LBFGS
 |  dE/ion   |   0.000000E+000 |   2.000000E-005 |         eV | No  | <-- LBFGS
 |  |F|max   |   3.291767E+000 |   5.000000E-002 |       eV/A | No  | <-- LBFGS
 |  |dR|max  |   0.000000E+000 |   1.000000E-003 |          A | No  | <-- LBFGS
 +-----------+-----------------+-----------------+------------+-----+ <-- LBFGS
  

================================================================================
 Starting LBFGS iteration          1 ...
================================================================================
  
 +------------+-------------+-------------+-----------------+ <-- min LBFGS
 |    Step    |   lambda    |   F.delta'  |    enthalpy     | <-- min LBFGS
 +------------+-------------+-------------+-----------------+ <-- min LBFGS
 |  previous  |    0.000000 |    6.033579 |  -259993.819708 | <-- min LBFGS
 +------------+-------------+-------------+-----------------+ <-- min LBFGS
  

--------------------------------------------------------------------------------
 LBFGS: starting iteration         1 with trial guess (lambda=  1.000000)
--------------------------------------------------------------------------------
 
                           -------------------------------
                                     Cell Contents
                           -------------------------------
 
            xxxxxxxxxxxxxxxxxxxxxxxxxxxxxxxxxxxxxxxxxxxxxxxxxxxxxxxxxxxxxxxxx
            x  Element         Atom        Fractional coordinates of atoms  x
            x                 Number           u          v          w      x
            x---------------------------------------------------------------x
            x  Al                1         0.943595   0.062188   0.691788   x
            x  Al                2         0.942576   0.313775   0.691683   x
            x  Al                3         0.947069   0.563136   0.685909   x
            x  Al                4         0.943758   0.811823   0.690899   x
            x  Al                5         0.942134   0.060258   0.940146   x
            x  Al                6         0.941740   0.314574   0.940070   x
            x  Al                7         0.949256   0.564938   0.941818   x
            x  Al                8         0.945828   0.810688   0.937327   x
            x  Al                9         0.944244   0.061409   0.189587   x
            x  Al               10         0.942690   0.313485   0.188202   x
            x  Al               11         0.946352   0.562674   0.194015   x
            x  Al               12         0.948683   0.811801   0.196063   x
            x  Al               13         0.945427   0.062656   0.440534   x
            x  Al               14         0.943641   0.312500   0.441471   x
            x  Al               15         0.943903   0.562286   0.440228   x
            x  Al               16         0.944381   0.812614   0.439356   x
            x  Al               17         0.701289   0.938869   0.561475   x
            x  Al               18         0.428003   0.809985   0.438245   x
            x  Al               19         0.563685   0.944531   0.435451   x
            x  Al               20         0.176130   0.929682   0.808631   x
            x  Al               21         0.194719   0.809954   0.440215   x
            x  Al               22         0.172301   0.569160   0.440959   x
            x  Al               23         0.315426   0.933431   0.682921   x
            x  Al               24         0.053496   0.819148   0.563175   x
            x  Al               25         0.695583   0.688163   0.566690   x
            x  Al               26         0.566543   0.684190   0.433246   x
            x  Al               27         0.312733   0.450952   0.687336   x
            x  Al               28         0.173920   0.434240   0.566301   x
            x  Al               29         0.699553   0.183647   0.563653   x
            x  Al               30         0.448736   0.437425   0.559486   x
            x  Al               31         0.311112   0.189668   0.452199   x
            x  Al               32         0.569381   0.941485   0.200241   x
            x  Al               33         0.062272   0.810515   0.308580   x
            x  Al               34         0.437818   0.564002   0.193726   x
            x  Al               35         0.309064   0.562520   0.318000   x
            x  Al               36         0.697485   0.432734   0.322087   x
            x  Al               37         0.564792   0.430556   0.197672   x
            x  Al               38         0.309370   0.321488   0.313867   x
            x  Al               39         0.072542   0.440576   0.189065   x
            x  Al               40         0.700336   0.187907   0.316048   x
            x  Al               41         0.690719   0.439940   0.559611   x
            x  Al               42         0.556638   0.314685   0.057749   x
            x  Al               43         0.553436   0.183295   0.193867   x
            x  Al               44         0.309580   0.058570   0.311936   x
            x  Al               45         0.066123   0.188736   0.201927   x
            x  Al               46         0.690811   0.814376   0.939305   x
            x  Al               47         0.812225   0.811699   0.073138   x
            x  Al               48         0.560175   0.808279   0.811050   x
            x  Al               49         0.440331   0.935823   0.067051   x
            x  Al               50         0.314171   0.928712   0.934009   x
            x  Al               51         0.804934   0.563712   0.066064   x
            x  Al               52         0.443302   0.700563   0.068303   x
            x  Al               53         0.573168   0.563673   0.059668   x
            x  Al               54         0.314481   0.691001   0.938644   x
            x  Al               55         0.697293   0.317163   0.930437   x
            x  Al               56         0.189763   0.308620   0.936753   x
            x  Al               57         0.320172   0.448532   0.941782   x
            x  Al               58         0.058623   0.311393   0.060582   x
            x  Al               59         0.697379   0.179678   0.065698   x
            x  Al               60         0.556114   0.176140   0.931405   x
            x  Al               61         0.189943   0.069366   0.936287   x
            x  Al               62         0.062603   0.062759   0.066698   x
            x  Al               63         0.560137   0.941006   0.683123   x
            x  Al               64         0.808141   0.566906   0.815526   x
            x  Al               65         0.565034   0.566303   0.813775   x
            x  Al               66         0.316181   0.681637   0.677125   x
            x  Al               67         0.181662   0.688485   0.815674   x
            x  Al               68         0.052035   0.683510   0.690212   x
            x  Al               69         0.557525   0.181379   0.692685   x
            x  Al               70         0.554703   0.187945   0.440681   x
            x  Al               71         0.695837   0.314965   0.700236   x
            x  Al               72         0.319488   0.307885   0.807412   x
            x  Ni                1         0.940951   0.186461   0.816430   x
            x  Ni                2         0.940760   0.443671   0.814680   x
            x  Ni                3         0.940934   0.684726   0.814108   x
            x  Ni                4         0.941534   0.936290   0.815170   x
            x  Ni                5         0.818893   0.187038   0.188737   x
            x  Ni                6         0.939106   0.441255   0.066557   x
            x  Ni                7         0.939556   0.687464   0.067928   x
            x  Ni                8         0.940739   0.933353   0.066270   x
            x  Ni                9         0.941328   0.188054   0.314176   x
            x  Ni               10         0.940560   0.436777   0.315456   x
            x  Ni               11         0.942539   0.686710   0.317240   x
            x  Ni               12         0.943249   0.937991   0.315968   x
            x  Ni               13         0.940427   0.188456   0.567124   x
            x  Ni               14         0.941208   0.437315   0.564995   x
            x  Ni               15         0.941621   0.688244   0.563726   x
            x  Ni               16         0.941143   0.936680   0.565446   x
            x  Ni               17         0.062473   0.062568   0.815364   x
            x  Ni               18         0.062424   0.185837   0.690924   x
            x  Ni               19         0.189743   0.187253   0.810950   x
            x  Ni               20         0.309188   0.055537   0.811530   x
            x  Ni               21         0.313723   0.185583   0.685966   x
            x  Ni               22         0.186178   0.059204   0.689555   x
            x  Ni               23         0.435747   0.182714   0.811301   x
            x  Ni               24         0.562748   0.056936   0.811667   x
            x  Ni               25         0.435413   0.058958   0.686426   x
            x  Ni               26         0.688525   0.185221   0.814731   x
            x  Ni               27         0.816660   0.059386   0.816007   x
            x  Ni               28         0.689143   0.441097   0.813406   x
            x  Ni               29         0.692082   0.061210   0.689111   x
            x  Ni               30         0.063329   0.311735   0.817122   x
            x  Ni               31         0.061788   0.438100   0.695353   x
            x  Ni               32         0.193004   0.437978   0.816667   x
            x  Ni               33         0.439893   0.316071   0.688683   x
            x  Ni               34         0.187756   0.314409   0.692520   x
            x  Ni               35         0.437594   0.442296   0.812213   x
            x  Ni               36         0.689479   0.564634   0.937853   x
            x  Ni               37         0.820763   0.315384   0.815867   x
            x  Ni               38         0.817119   0.441048   0.689935   x
            x  Ni               39         0.566587   0.437901   0.688849   x
            x  Ni               40         0.061592   0.562683   0.817263   x
            x  Ni               41         0.313757   0.569834   0.813152   x
            x  Ni               42         0.184470   0.565114   0.687999   x
            x  Ni               43         0.438924   0.688075   0.810654   x
            x  Ni               44         0.690955   0.563099   0.688191   x
            x  Ni               45         0.565247   0.689201   0.684955   x
            x  Ni               46         0.688312   0.691101   0.812143   x
            x  Ni               47         0.817729   0.443145   0.940189   x
            x  Ni               48         0.817758   0.687759   0.689650   x
            x  Ni               49         0.056968   0.810056   0.813582   x
            x  Ni               50         0.057992   0.937263   0.688242   x
            x  Ni               51         0.182456   0.807871   0.686352   x
            x  Ni               52         0.310939   0.807332   0.806577   x
            x  Ni               53         0.179546   0.688045   0.566267   x
            x  Ni               54         0.311415   0.809784   0.564087   x
            x  Ni               55         0.437376   0.932741   0.810265   x
            x  Ni               56         0.689768   0.815628   0.686709   x
            x  Ni               57         0.439884   0.811053   0.682867   x
            x  Ni               58         0.687874   0.934192   0.812307   x
            x  Ni               59         0.816151   0.810705   0.815127   x
            x  Ni               60         0.817906   0.936616   0.690911   x
            x  Ni               61         0.566863   0.814184   0.556703   x
            x  Ni               62         0.062554   0.186842   0.939785   x
            x  Ni               63         0.186474   0.188039   0.065154   x
            x  Ni               64         0.311788   0.060206   0.063035   x
            x  Ni               65         0.315109   0.186530   0.937238   x
            x  Ni               66         0.438643   0.185064   0.062668   x
            x  Ni               67         0.564059   0.061054   0.066066   x
            x  Ni               68         0.433969   0.055466   0.938433   x
            x  Ni               69         0.818966   0.058673   0.064898   x
            x  Ni               70         0.815731   0.186156   0.938810   x
            x  Ni               71         0.691380   0.059675   0.938609   x
            x  Ni               72         0.064405   0.437552   0.939346   x
            x  Ni               73         0.189603   0.438085   0.060386   x
            x  Ni               74         0.314297   0.314475   0.062225   x
            x  Ni               75         0.442351   0.442663   0.067333   x
            x  Ni               76         0.435544   0.313290   0.936384   x
            x  Ni               77         0.562033   0.438603   0.936520   x
            x  Ni               78         0.562508   0.311383   0.815585   x
            x  Ni               79         0.686180   0.433266   0.064376   x
            x  Ni               80         0.939675   0.187362   0.063931   x
            x  Ni               81         0.814926   0.313640   0.062308   x
            x  Ni               82         0.063088   0.563454   0.064911   x
            x  Ni               83         0.061903   0.687811   0.940996   x
            x  Ni               84         0.188691   0.690140   0.062773   x
            x  Ni               85         0.317202   0.568366   0.065718   x
            x  Ni               86         0.189418   0.565355   0.940134   x
            x  Ni               87         0.439454   0.813281   0.938788   x
            x  Ni               88         0.442337   0.570006   0.941940   x
            x  Ni               89         0.688246   0.690978   0.067812   x
            x  Ni               90         0.816445   0.689089   0.942264   x
            x  Ni               91         0.564592   0.692147   0.939721   x
            x  Ni               92         0.061494   0.814581   0.065153   x
            x  Ni               93         0.062543   0.939048   0.941112   x
[...]
            Ni 4   -- Ni 49                  0.05        2.59962
            Ni 87  -- Ni 95                 -0.06        2.59966
             Al 12 -- Ni 129                 0.14        2.59995
             Al 71 -- Ni 167                 0.18        2.60048
            Ni 16  -- Ni 143                 0.03        2.60050
             Al 37 -- Ni 79                  0.15        2.60073
            Ni 31  -- Ni 168                -0.00        2.60075
             Al 69 -- Ni 26                  0.18        2.60081
             Al 25 -- Ni 181                 0.16        2.60089
             Al 52 -- Al 54                  0.26        2.60091
            Ni 160 -- Ni 171                 0.01        2.60093
            Ni 7   -- Ni 92                  0.06        2.60096
            Ni 13  -- Ni 167                 0.08        2.60116
             Al 41 -- Ni 39                  0.16        2.60128
            Ni 75  -- Ni 85                  0.06        2.60136
            Ni 10  -- Ni 109                -0.03        2.60151
            Ni 15  -- Ni 168                 0.02        2.60179
             Al 63 -- Ni 56                  0.15        2.60202
            Ni 39  -- Ni 173                 0.02        2.60208
             Al 12 -- Ni 140                 0.17        2.60210
             Al 63 -- Ni 61                  0.18        2.60215
            Ni 9   -- Ni 109                -0.02        2.60275
            Ni 24  -- Ni 26                  0.01        2.60293
            Ni 5   -- Ni 116                -0.01        2.60338
            Ni 13  -- Ni 144                 0.03        2.60357
             Al 66 -- Ni 43                  0.16        2.60394
            Ni 24  -- Ni 68                  0.03        2.60412
             Al 32 -- Ni 99                  0.17        2.60423
            Ni 27  -- Ni 100                 0.09        2.60427
            Ni 119 -- Ni 123                 0.07        2.60430
             Al 41 -- Ni 162                 0.18        2.60430
            Ni 1   -- Ni 27                  0.02        2.60477
             Al 28 -- Ni 42                  0.23        2.60502
            Ni 103 -- Ni 178                 0.14        2.60511
            Ni 66  -- Ni 68                  0.06        2.60521
            Ni 16  -- Ni 60                  0.04        2.60521
             Al 13 -- Ni 178                 0.18        2.60521
            Ni 62  -- Ni 63                 -0.07        2.60541
            Ni 166 -- Ni 177                 0.08        2.60546
            Ni 45  -- Ni 61                  0.11        2.60554
            Ni 2   -- Ni 38                  0.04        2.60569
             Al 18 -- Ni 137                 0.16        2.60571
            Ni 3   -- Ni 83                  0.01        2.60584
             Al 41 -- Ni 153                 0.18        2.60600
             Al 3  -- Ni 15                  0.17        2.60602
             Al 8  -- Ni 90                  0.18        2.60605
            Ni 34  -- Ni 157                 0.11        2.60610
            Ni 147 -- Ni 151                 0.07        2.60614
             Al 70 -- Ni 153                 0.15        2.60620
             Al 11 -- Ni 82                  0.18        2.60634
            Ni 9   -- Ni 116                 0.07        2.60652
            Ni 154 -- Ni 156                 0.05        2.60661
            Ni 16  -- Ni 178                -0.02        2.60697
            Ni 11  -- Ni 128                 0.09        2.60704
             Al 1  -- Ni 16                  0.18        2.60709
             Al 36 -- Ni 130                 0.16        2.60730
            Ni 29  -- Ni 154                 0.03        2.60781
            Ni 63  -- Ni 65                  0.02        2.60794
            Ni 41  -- Ni 88                  0.04        2.60796
            Ni 47  -- Ni 79                  0.04        2.60797
            Ni 121 -- Ni 169                -0.02        2.60803
             Al 66 -- Ni 51                  0.15        2.60812
            Ni 40  -- Ni 72                  0.13        2.60872
             Al 23 -- Ni 51                  0.18        2.60890
             Al 67 -- Ni 42                  0.14        2.60895
            Ni 8   -- Ni 141                -0.01        2.60915
            Ni 15  -- Ni 175                 0.08        2.60945
            Ni 26  -- Ni 78                 -0.11        2.61038
            Ni 163 -- Ni 177                 0.00        2.61066
             Al 3  -- Al 68                  0.25        2.61092
             Al 12 -- Al 33                  0.26        2.61108
             Al 9  -- Ni 101                 0.17        2.61122
            Ni 54  -- Ni 148                -0.00        2.61138
            Ni 137 -- Ni 139                 0.01        2.61159
             Al 23 -- Ni 22                  0.14        2.61221
             Al 44 -- Ni 104                 0.14        2.61246
            Ni 4   -- Ni 59                  0.01        2.61247
             Al 35 -- Ni 122                 0.15        2.61254
            Ni 73  -- Ni 123                 0.06        2.61307
            Ni 49  -- Ni 96                  0.05        2.61317
             Al 64 -- Ni 2                   0.16        2.61338
             Al 61 -- Al 62                  0.25        2.61354
            Ni 115 -- Ni 147                 0.09        2.61397
             Al 47 -- Ni 7                   0.16        2.61398
             Al 53 -- Ni 126                 0.16        2.61439
            Ni 32  -- Ni 42                  0.09        2.61440
            Ni 182 -- Ni 183                -0.04        2.61475
             Al 9  -- Ni 80                  0.19        2.61492
             Al 15 -- Ni 169                 0.20        2.61498
            Ni 87  -- Ni 97                 -0.00        2.61502
            Ni 149 -- Ni 171                 0.07        2.61521
            Ni 69  -- Ni 70                  0.03        2.61597
            Ni 110 -- Ni 119                 0.03        2.61604
             Al 22 -- Ni 159                 0.18        2.61605
             Al 66 -- Ni 57                  0.16        2.61623
            Ni 126 -- Ni 137                 0.13        2.61625
             Al 15 -- Ni 14                  0.18        2.61625
            Ni 12  -- Ni 107                 0.08        2.61630
            Ni 52  -- Ni 96                 -0.07        2.61647
             Al 37 -- Al 42                  0.23        2.61696
            Ni 2   -- Ni 30                  0.05        2.61719
            Ni 110 -- Ni 111                -0.00        2.61793
             Al 21 -- Ni 169                 0.16        2.61793
             Al 40 -- Ni 151                 0.15        2.61858
            Ni 72  -- Ni 82                  0.03        2.61953
             Al 40 -- Ni 115                 0.14        2.62008
            Ni 40  -- Ni 83                 -0.02        2.62016
            Ni 24  -- Ni 25                 -0.01        2.62085
            Ni 7   -- Ni 82                  0.06        2.62113
            Ni 43  -- Ni 87                  0.00        2.62180
            Ni 69  -- Ni 80                  0.08        2.62196
            Ni 51  -- Ni 148                 0.06        2.62203
            Ni 124 -- Ni 125                 0.05        2.62214
             Al 15 -- Ni 10                  0.18        2.62222
             Al 22 -- Al 35                  0.29        2.62294
            Ni 143 -- Ni 178                 0.09        2.62357
            Ni 6   -- Ni 47                  0.04        2.62362
             Al 43 -- Ni 118                 0.13        2.62381
            Ni 28  -- Ni 37                  0.02        2.62392
             Al 43 -- Ni 108                 0.14        2.62415
             Al 14 -- Ni 167                 0.17        2.62424
            Ni 28  -- Ni 78                  0.03        2.62492
            Ni 113 -- Ni 115                 0.10        2.62512
            Ni 20  -- Ni 65                  0.06        2.62557
             Al 30 -- Ni 162                 0.17        2.62566
             Al 60 -- Ni 76                  0.17        2.62568
             Al 11 -- Ni 6                   0.20        2.62571
             Al 61 -- Ni 93                  0.18        2.62574
            Ni 121 -- Ni 170                -0.02        2.62592
             Al 27 -- Ni 33                  0.14        2.62610
             Al 48 -- Ni 98                  0.15        2.62614
             Al 36 -- Ni 125                 0.17        2.62639
            Ni 41  -- Ni 161                 0.01        2.62646
             Al 21 -- Ni 178                 0.16        2.62711
             Al 62 -- Ni 62                  0.14        2.62713
            Ni 110 -- Ni 123                -0.01        2.62716
            Ni 67  -- Ni 68                  0.05        2.62731
            Ni 23  -- Ni 78                  0.00        2.62770
            Ni 69  -- Ni 108                 0.07        2.62803
             Al 25 -- Ni 61                  0.16        2.62831
            Ni 95  -- Ni 138                -0.00        2.62888
            Ni 31  -- Ni 32                  0.09        2.62983
             Al 5  -- Ni 8                   0.18        2.63029
            Ni 73  -- Ni 85                  0.11        2.63034
             Al 16 -- Ni 178                 0.14        2.63034
            Ni 31  -- Ni 157                -0.00        2.63060
            Ni 19  -- Ni 65                 -0.07        2.63107
             Al 46 -- Al 48                  0.25        2.63153
            Ni 36  -- Ni 89                 -0.02        2.63180
            Ni 19  -- Ni 62                 -0.01        2.63185
             Al 42 -- Ni 118                 0.17        2.63207
             Al 2  -- Ni 2                   0.18        2.63212
             Al 36 -- Al 37                  0.25        2.63231
            Ni 157 -- Ni 158                 0.03        2.63252
             Al 49 -- Al 50                  0.25        2.63351
             Al 27 -- Ni 34                  0.11        2.63405
            Ni 26  -- Ni 37                 -0.01        2.63485
             Al 26 -- Ni 61                  0.17        2.63491
            Ni 74  -- Ni 75                  0.07        2.63561
             Al 6  -- Ni 6                   0.17        2.63596
             Al 4  -- Ni 3                   0.15        2.63626
            Ni 20  -- Ni 21                  0.09        2.63675
            Ni 99  -- Ni 142                -0.01        2.63739
             Al 10 -- Ni 109                 0.16        2.63798
             Al 19 -- Ni 181                 0.13        2.63824
            Ni 119 -- Ni 169                 0.08        2.63833
             Al 72 -- Ni 32                  0.17        2.63843
             Al 15 -- Ni 15                  0.18        2.63891
            Ni 23  -- Ni 76                  0.01        2.63925
            Ni 54  -- Ni 179                 0.04        2.63946
            Ni 21  -- Ni 33                  0.02        2.63959
            Ni 89  -- Ni 130                 0.03        2.63968
            Ni 28  -- Ni 47                 -0.02        2.64034
             Al 50 -- Ni 64                  0.12        2.64042
            Ni 102 -- Ni 105                 0.02        2.64123
            Ni 79  -- Ni 130                -0.02        2.64165
             Al 18 -- Ni 61                  0.15        2.64202
            Ni 3   -- Ni 59                  0.03        2.64221
             Al 11 -- Ni 117                 0.15        2.64387
            Ni 102 -- Ni 112                 0.01        2.64394
             Al 52 -- Ni 88                  0.16        2.64403
             Al 39 -- Ni 6                   0.15        2.64455
            Ni 133 -- Ni 179                -0.04        2.64537
             Al 14 -- Ni 10                  0.18        2.64557
            Ni 159 -- Ni 164                 0.10        2.64563
            Ni 91  -- Ni 97                  0.04        2.64642
             Al 20 -- Ni 20                  0.16        2.64724
             Al 32 -- Ni 67                  0.16        2.64790
             Al 24 -- Al 68                  0.22        2.64881
            Ni 37  -- Ni 47                  0.04        2.64889
             Al 52 -- Ni 85                  0.13        2.64950
             Al 17 -- Ni 61                  0.15        2.64958
             Al 63 -- Ni 58                  0.15        2.64976
             Al 56 -- Al 72                  0.24        2.64986
            Ni 110 -- Ni 112                 0.03        2.65032
            Ni 15  -- Ni 176                 0.04        2.65150
            Ni 48  -- Ni 56                  0.08        2.65154
             Al 48 -- Ni 58                  0.12        2.65163
            Ni 116 -- Ni 117                 0.01        2.65216
             Al 56 -- Ni 73                  0.14        2.65271
            Ni 106 -- Ni 147                 0.02        2.65287
             Al 17 -- Ni 150                 0.14        2.65446
            Ni 139 -- Ni 151                -0.00        2.65802
            Ni 102 -- Ni 109                 0.07        2.65813
            Ni 35  -- Ni 88                  0.03        2.65876
            Ni 36  -- Ni 79                  0.00        2.65928
             Al 61 -- Ni 94                  0.13        2.65971
            Ni 80  -- Ni 81                  0.07        2.66017
            Ni 145 -- Ni 171                 0.07        2.66373
            Ni 23  -- Ni 33                  0.02        2.66419
             Al 3  -- Ni 40                  0.12        2.66505
            Ni 117 -- Ni 118                 0.11        2.66745
             Al 38 -- Ni 159                 0.12        2.66759
            Ni 153 -- Ni 166                 0.07        2.66882
             Al 48 -- Al 63                  0.23        2.67010
             Al 32 -- Al 49                  0.25        2.67017
             Al 20 -- Ni 52                  0.13        2.67026
             Al 38 -- Ni 104                 0.13        2.67086
            Ni 101 -- Ni 102                 0.05        2.67382
             Al 34 -- Al 37                  0.19        2.67497
             Al 22 -- Al 28                  0.28        2.67993
            Ni 113 -- Ni 159                 0.05        2.68060
             Al 27 -- Al 72                  0.19        2.68070
             Al 70 -- Ni 156                 0.11        2.68112
            Ni 168 -- Ni 169                 0.03        2.68215
             Al 5  -- Ni 80                  0.15        2.68295
             Al 21 -- Al 33                  0.22        2.68553
            Ni 50  -- Ni 51                  0.02        2.68565
             Al 21 -- Al 24                  0.22        2.68732
            Ni 116 -- Ni 118                 0.09        2.68817
             Al 34 -- Al 52                  0.20        2.69013
            Ni 162 -- Ni 163                 0.06        2.69075
             Al 17 -- Al 63                  0.22        2.69352
             Al 51 -- Ni 7                   0.13        2.69480
             Al 3  -- Al 64                  0.22        2.69533
             Al 45 -- Ni 80                  0.14        2.69774
             Al 36 -- Ni 115                 0.13        2.69999
             Al 39 -- Al 58                  0.22        2.70171
             Al 6  -- Al 58                  0.21        2.70173
            Ni 75  -- Ni 76                  0.05        2.70213
             Al 45 -- Al 58                  0.21        2.70674
             Al 17 -- Al 19                  0.22        2.71126
             Al 27 -- Al 28                  0.29        2.71147
            Ni 70  -- Ni 80                  0.03        2.71231
             Al 66 -- Ni 52                  0.12        2.71276
             Al 6  -- Ni 80                  0.14        2.71337
             Al 27 -- Al 30                  0.27        2.71375
             Al 9  -- Al 62                  0.23        2.71526
             Al 11 -- Al 39                  0.20        2.71637
             Al 25 -- Al 26                  0.21        2.71816
             Al 45 -- Al 62                  0.20        2.71890
             Al 20 -- Al 50                  0.22        2.71962
            Ni 49  -- Ni 93                  0.04        2.72067
             Al 7  -- Ni 90                  0.13        2.72236
             Al 20 -- Al 23                  0.21        2.72256
             Al 5  -- Al 62                  0.22        2.72472
             Al 11 -- Al 51                  0.22        2.72887
            Ni 162 -- Ni 164                 0.05        2.73196
             Al 50 -- Al 61                  0.18        2.73539
             Al 18 -- Al 19                  0.19        2.74152
             Al 16 -- Al 24                  0.18        2.74186
             Al 18 -- Al 26                  0.20        2.74251
             Al 41 -- Al 71                  0.19        2.74592
             Al 36 -- Ni 118                 0.13        2.74701
             Al 40 -- Al 43                  0.19        2.74893
             Al 42 -- Al 43                  0.19        2.74989
             Al 52 -- Al 53                  0.18        2.75293
             Al 69 -- Al 71                  0.18        2.75344
             Al 4  -- Al 24                  0.18        2.75349
             Al 29 -- Al 70                  0.19        2.75732
             Al 42 -- Al 60                  0.23        2.75929
             Al 31 -- Al 38                  0.18        2.76006
             Al 34 -- Al 53                  0.17        2.77056
             Al 40 -- Al 70                  0.19        2.77532
             Al 10 -- Al 58                  0.19        2.77635
             Al 37 -- Al 53                  0.15        2.77816
             Al 20 -- Al 61                  0.17        2.78062
             Al 4  -- Al 68                  0.16        2.78066
             Al 8  -- Al 47                  0.19        2.78724
             Al 16 -- Al 33                  0.16        2.78739
             Al 29 -- Al 71                  0.17        2.78927
            Ni 133 -- Ni 170                -0.06        2.79065
             Al 7  -- Al 51                  0.20        2.79733
             Al 42 -- Al 55                  0.18        2.79976
             Al 31 -- Al 44                  0.16        2.80104
             Al 7  -- Al 64                  0.17        2.80464
             Al 56 -- Al 57                  0.15        2.80600
             Al 51 -- Ni 6                   0.11        2.80675
             Al 66 -- Al 67                  0.15        2.81289
             Al 29 -- Al 69                  0.15        2.82330
             Al 10 -- Al 45                  0.14        2.84545
             Al 9  -- Al 45                  0.13        2.84615
             Al 55 -- Al 59                  0.16        2.85416
             Al 43 -- Al 59                  0.14        2.85629
             Al 10 -- Al 39                  0.14        2.86667
             Al 59 -- Al 60                  0.16        2.89155
             Al 57 -- Al 72                  0.12        2.89730
             Al 55 -- Al 60                  0.11        2.93079
             Al 42 -- Al 59                  0.13        2.93792
======================================================================
 

Writing analysis data to castep.castep_bin

Writing model to castep.check
 
 A BibTeX formatted list of references used in this run has been written to 
 castep.bib
 
Initialisation time =     18.24 s
Calculation time    =  12553.00 s
Finalisation time   =      4.18 s
Total time          =  12575.42 s
Peak Memory Use     = 3940176 kB
 
Overall parallel efficiency rating: Satisfactory (66%)
 
Data was distributed by:-
G-vector (128-way); efficiency rating: Satisfactory (68%)
