 +-------------------------------------------------+
 |                                                 |
 |      CCC   AA    SSS  TTTTT  EEEEE  PPPP        |
 |     C     A  A  S       T    E      P   P       |
 |     C     AAAA   SS     T    EEE    PPPP        |
 |     C     A  A     S    T    E      P           |
 |      CCC  A  A  SSS     T    EEEEE  P           |
 |                                                 |
 +-------------------------------------------------+
 |                                                 |
 | Welcome to Academic Release CASTEP version 20.11|          
 | Ab Initio Total Energy Program                  |
 |                                                 |
 | Authors:                                        |
 | M. Segall, M. Probert, C. Pickard, P. Hasnip,   |
 | S. Clark, K. Refson, J. R. Yates, M. Payne      |
 |                                                 |
 | Contributors:                                   |
 | P. Lindan, P. Haynes, J. White, V. Milman,      |
 | N. Govind, M. Gibson, P. Tulip, V. Cocula,      |
 | B. Montanari, D. Quigley, M. Glover,            |
 | L. Bernasconi, A. Perlov, M. Plummer,           |
 | E. McNellis, J. Meyer, J. Gale, D. Jochym       |
 | J. Aarons, B. Walker, R. Gillen, D. Jones       |
 | T. Green, I. J. Bush, C. J. Armstrong,          |
 | E. J. Higgins, E. L. Brown, M. S. McFly,        |
 | J. Wilkins, B-C. Shih, P. J. P. Byrne,          |
 | R. J. Maurer, J. C. Womack, J. Dziedzic,        |
 | J. R. Kermode, A. Bartok-Partay                 |
 |                                                 |
 | Copyright (c) 2000 - 2020                       |
 |                                                 |
 |     Distributed under license from Cambridge    |
 |     Enterprise for academic use only.           |
 |                                                 |
 | Please cite                                     |
 |                                                 |
 |     "First principles methods using CASTEP"     |
 |                                                 |
 |         Zeitschrift fuer Kristallographie       |
 |           220(5-6) pp. 567-570 (2005)           |
 |                                                 |
 | S. J. Clark, M. D. Segall, C. J. Pickard,       |
 | P. J. Hasnip, M. J. Probert, K. Refson,         |
 | M. C. Payne                                     |
 |                                                 |
 |       in all publications arising from          |
 |              your use of CASTEP                 |
 |                                                 |
 +-------------------------------------------------+
 |                                                 |
 |              http://www.castep.org              |
 |                                                 |
 +-------------------------------------------------+
 
 
 
 Compiled for linux_x86_64_ifort on Wed, 22 Sep 2021 16:00:02 +0100
 from code version e772bf432+  HEAD  Sat Apr 3 17:41:32 2021 +0100
 Compiler: Intel Fortran 19.1.3.304; Optimisation: fast
 MATHLIBS: Intel MKL(2020.0.4) (LAPACK version 3.8.0)
 FFT Lib : mkl
 Fundamental constants values: CODATA 2014
 
 Run started: Tue, 11 Oct 2022 14:48:25 +0100
 
 Atomic calculation performed for Al: 1s2 2s2 2p6 3s2 3p1
 
 Converged in 52 iterations to an ae energy of -6606.982 eV
 
   ============================================================                
   | Pseudopotential Report - Date of generation 11-10-2022   |                
   ------------------------------------------------------------                
   | Element: Al Ionic charge:  3.00 Level of theory: RPBE    |                
   | Atomic Solver: Koelling-Harmon                           |                
   |                                                          |                
   |               Reference Electronic Structure             |                
   |         Orbital         Occupation         Energy        |                
   |            3s              2.000           -0.284        |                
   |            3p              1.000           -0.100        |                
   |                                                          |                
   |                 Pseudopotential Definition               |                
   |        Beta     l      e      Rc     scheme   norm       |                
   |          1      0   -0.284   2.192     qc      0         |                
   |          2      0    0.250   2.192     qc      0         |                
   |          3      1   -0.100   2.192     qc      0         |                
   |          4      1    0.250   2.192     qc      0         |                
   |          5      2    0.000   2.000     qc      0         |                
   |          6      2    0.250   2.000     qc      0         |                
   |         loc     3    0.000   2.192     pn      0         |                
   |                                                          |                
   | Augmentation charge Rinner = 1.398                       |                
   | Partial core correction Rc = 1.398                       |                
   ------------------------------------------------------------                
   | "3|2.2|2.2|1.4|4|5|5|30:31:32U2U2"                       |                
   ------------------------------------------------------------                
   |      Author: Chris J. Pickard, Cambridge University      |                
   ============================================================                
 
 Atomic calculation performed for Ni: 1s2 2s2 2p6 3s2 3p6 3d8 4s2
 
 Converged in 109 iterations to an ae energy of -41381.414 eV
 
   ============================================================                
   | Pseudopotential Report - Date of generation 11-10-2022   |                
   ------------------------------------------------------------                
   | Element: Ni Ionic charge: 10.00 Level of theory: RPBE    |                
   | Atomic Solver: Koelling-Harmon                           |                
   |                                                          |                
   |               Reference Electronic Structure             |                
   |         Orbital         Occupation         Energy        |                
   |            3d              8.000           -0.324        |                
   |            4s              2.000           -0.204        |                
   |                                                          |                
   |                 Pseudopotential Definition               |                
   |        Beta     l      e      Rc     scheme   norm       |                
   |          1      0   -0.204   2.401     qc      0         |                
   |          2      0    0.250   2.401     qc      0         |                
   |          3      1    0.000   2.401     qc      0         |                
   |          4      1    0.250   2.401     qc      0         |                
   |          5      2   -0.324   1.999     qc      0         |                
   |          6      2    0.250   1.999     qc      0         |                
   |         loc     3    0.000   2.401     pn      0         |                
   |                                                          |                
   | Augmentation charge Rinner = 1.001                       |                
   | Partial core correction Rc = 1.001                       |                
   ------------------------------------------------------------                
   | "3|2.4|2.4|1.0|8|9|10|40:41:32U2U2(qc=5.5)"              |                
   ------------------------------------------------------------                
   |      Author: Chris J. Pickard, Cambridge University      |                
   ============================================================                
 
 Pseudo atomic calculation performed for Al 3s2 3p1
 
 Converged in 13 iterations to a total energy of -107.6592 eV
 
 Pseudo atomic calculation performed for Ni 3d8 4s2
 
 Converged in 41 iterations to a total energy of -1369.7890 eV
 Calculation parallelised over 48 processes.
 Data is distributed by G-vector(48-way)

 ************************************ Title ************************************
 

 ***************************** General Parameters ******************************
  
 output verbosity                               : normal  (1)
 write checkpoint data to                       : castep.check
 type of calculation                            : geometry optimization
 stress calculation                             : off
 density difference calculation                 : off
 electron localisation func (ELF) calculation   : off
 Hirshfeld analysis                             : off
 molecular orbital projected DOS                : off
 deltaSCF calculation                           : off
 unlimited duration calculation
 timing information                             : on
 memory usage estimate                          : on
 write extra output files                       : on
 write final potential to formatted file        : off
 write final density to formatted file          : off
 write BibTeX reference list                    : on
 write OTFG pseudopotential files               : on
 write electrostatic potential file             : on
 write bands file                               : on
 checkpoint writing                             : both castep_bin and check files
  
 output         length unit                     : A
 output           mass unit                     : amu
 output           time unit                     : ps
 output         charge unit                     : e
 output           spin unit                     : hbar/2
 output         energy unit                     : eV
 output          force unit                     : eV/A
 output       velocity unit                     : A/ps
 output       pressure unit                     : GPa
 output     inv_length unit                     : 1/A
 output      frequency unit                     : cm-1
 output force constant unit                     : eV/A**2
 output         volume unit                     : A**3
 output   IR intensity unit                     : (D/A)**2/amu
 output         dipole unit                     : D
 output         efield unit                     : eV/A/e
 output        entropy unit                     : J/mol/K
 output    efield chi2 unit                     : pm/V
  
 wavefunctions paging                           : none
 random number generator seed                   : randomised (144826009)
 data distribution                              : optimal for this architecture
 optimization strategy                          : maximize speed(+++)

 *********************** Exchange-Correlation Parameters ***********************
  
 using functional                               : revised Perdew Burke Ernzerhof
 relativistic treatment                         : Koelling-Harmon
 DFT+D: Semi-empirical dispersion correction    : off

 ************************* Pseudopotential Parameters **************************
  
 pseudopotential representation                 : reciprocal space
 <beta|phi> representation                      : reciprocal space
 spin-orbit coupling                            : off

 **************************** Basis Set Parameters *****************************
  
 plane wave basis set cut-off                   :   900.0000   eV
 size of standard grid                          :     1.7500
 size of   fine   gmax                          :    26.8966   1/A
 finite basis set correction                    : automatic
 number of sample energies                      :          3
           sample  spacing                      :     5.0000   eV

 **************************** Electronic Parameters ****************************
  
 number of  electrons                           :  2112.    
 net charge of system                           :  0.000    
 treating system as non-spin-polarized
 number of bands                                :       1168

 ********************* Electronic Minimization Parameters **********************
  
 Method: Treating system as metallic with density mixing treatment of electrons,
         and number of  SD  steps               :          1
         and number of  CG  steps               :          4
  
 total energy / atom convergence tol.           : 0.1000E-05   eV
 eigen-energy convergence tolerance             : 0.2192E-06   eV
 max force / atom convergence tol.              : ignored
 convergence tolerance window                   :          3   cycles
 max. number of SCF cycles                      :        360
 number of fixed-spin iterations                :         10
 smearing scheme                                : Gaussian
 smearing width                                 : 0.2000       eV
 Fermi energy convergence tolerance             : 0.2721E-13   eV
 periodic dipole correction                     : NONE

 ************************** Density Mixing Parameters **************************
  
 density-mixing scheme                          : Pulay
 max. length of mixing history                  :         20
 charge density mixing amplitude                : 0.8000    
 cut-off energy for mixing                      :  900.0       eV

 *********************** Population Analysis Parameters ************************
  
 Population analysis with cutoff                :  3.000       A
 Population analysis output                     : summary and pdos components

 ********************** Geometry Optimization Parameters ***********************
  
 optimization method                            : LBFGS
 max. no. of LBFGS updates                      : unbounded
 preconditioned LBFGS is activated
 preconditioner type                            : EXP
     stabilization constant                     :     0.1000
     parameter A                                :     3.0000
     nearest neighbor distance                  : automatic
     cut-off distance                           : automatic
     parameter mu                               : automatic
 variable cell method                           : fixed basis quality
 max. number of steps                           :         30
 estimated bulk modulus                         :  500.0       GPa
 estimated <frequency>                          :  1668.       cm-1
 geom line minimiser                            : on
 with line minimiser tolerance                  :     0.4000
 total energy convergence tolerance             : 0.2000E-04   eV/atom
        max ionic |force| tolerance             : 0.5000E-01   eV/A
 max ionic |displacement| tolerance             : 0.1000E-02   A
   max |stress component| tolerance             : 0.1000       GPa
 convergence tolerance window                   :          2   steps
 backup results every                           :          5   steps
 write geom trajectory file                     : on

 *******************************************************************************
  
 
                           -------------------------------
                                      Unit Cell
                           -------------------------------
        Real Lattice(A)                      Reciprocal Lattice(1/A)
    14.4528000     0.0000000     0.0000000        0.434738273   0.000000000   0.000000000
     0.0000000    14.4528000     0.0000000        0.000000000   0.434738273   0.000000000
     0.0000000     0.0000000    14.4528000        0.000000000   0.000000000   0.434738273
 
                       Lattice parameters(A)       Cell Angles
                    a =     14.452800          alpha =   90.000000
                    b =     14.452800          beta  =   90.000000
                    c =     14.452800          gamma =   90.000000
 
                       Current cell volume =          3018.950406       A**3
                                   density =             4.304791   AMU/A**3
                                           =             7.148274     g/cm^3
 
                           -------------------------------
                                     Cell Contents
                           -------------------------------
                         Total number of ions in cell =  256
                      Total number of species in cell =    2
                        Max number of any one species =  192
 
            xxxxxxxxxxxxxxxxxxxxxxxxxxxxxxxxxxxxxxxxxxxxxxxxxxxxxxxxxxxx
            x  Element    Atom        Fractional coordinates of atoms  x
            x            Number           u          v          w      x
            x----------------------------------------------------------x
            x  Al           1         0.812500   0.937500   0.937500   x 
            x  Al           2         0.562500   0.812500   0.812500   x 
            x  Al           3         0.687500   0.937500   0.812500   x 
            x  Al           4         0.437500   0.812500   0.937500   x 
            x  Al           5         0.062500   0.812500   0.812500   x 
            x  Al           6         0.187500   0.812500   0.937500   x 
            x  Al           7         0.812500   0.687500   0.937500   x 
            x  Al           8         0.062500   0.687500   0.937500   x 
            x  Al           9         0.937500   0.437500   0.812500   x 
            x  Al          10         0.687500   0.437500   0.812500   x 
            x  Al          11         0.312500   0.312500   0.812500   x 
            x  Al          12         0.437500   0.312500   0.937500   x 
            x  Al          13         0.062500   0.437500   0.937500   x 
            x  Al          14         0.562500   0.062500   0.812500   x 
            x  Al          15         0.437500   0.187500   0.812500   x 
            x  Al          16         0.437500   0.062500   0.937500   x 
            x  Al          17         0.562500   0.812500   0.562500   x 
            x  Al          18         0.312500   0.812500   0.562500   x 
            x  Al          19         0.437500   0.812500   0.687500   x 
            x  Al          20         0.187500   0.937500   0.562500   x 
            x  Al          21         0.062500   0.937500   0.687500   x 
            x  Al          22         0.812500   0.562500   0.562500   x 
            x  Al          23         0.437500   0.687500   0.562500   x 
            x  Al          24         0.312500   0.687500   0.687500   x 
            x  Al          25         0.187500   0.562500   0.687500   x 
            x  Al          26         0.937500   0.437500   0.562500   x 
            x  Al          27         0.937500   0.312500   0.687500   x 
            x  Al          28         0.812500   0.062500   0.562500   x 
            x  Al          29         0.937500   0.187500   0.562500   x 
            x  Al          30         0.937500   0.062500   0.687500   x 
            x  Al          31         0.312500   0.187500   0.687500   x 
            x  Al          32         0.937500   0.812500   0.437500   x 
            x  Al          33         0.687500   0.812500   0.437500   x 
            x  Al          34         0.312500   0.812500   0.312500   x 
            x  Al          35         0.437500   0.937500   0.312500   x 
            x  Al          36         0.062500   0.812500   0.312500   x 
            x  Al          37         0.187500   0.937500   0.312500   x 
            x  Al          38         0.187500   0.812500   0.437500   x 
            x  Al          39         0.062500   0.937500   0.437500   x 
            x  Al          40         0.812500   0.562500   0.312500   x 
            x  Al          41         0.937500   0.562500   0.437500   x 
            x  Al          42         0.812500   0.687500   0.437500   x 
            x  Al          43         0.687500   0.562500   0.437500   x 
            x  Al          44         0.562500   0.687500   0.437500   x 
            x  Al          45         0.187500   0.687500   0.312500   x 
            x  Al          46         0.937500   0.312500   0.437500   x 
            x  Al          47         0.562500   0.312500   0.312500   x 
            x  Al          48         0.937500   0.062500   0.437500   x 
            x  Al          49         0.437500   0.062500   0.437500   x 
            x  Al          50         0.062500   0.187500   0.437500   x 
            x  Al          51         0.937500   0.812500   0.187500   x 
            x  Al          52         0.562500   0.937500   0.187500   x 
            x  Al          53         0.312500   0.812500   0.062500   x 
            x  Al          54         0.562500   0.687500   0.187500   x 
            x  Al          55         0.437500   0.562500   0.187500   x 
            x  Al          56         0.187500   0.687500   0.062500   x 
            x  Al          57         0.062500   0.687500   0.187500   x 
            x  Al          58         0.937500   0.437500   0.062500   x 
            x  Al          59         0.437500   0.437500   0.062500   x 
            x  Al          60         0.437500   0.312500   0.187500   x 
            x  Al          61         0.937500   0.187500   0.062500   x 
            x  Al          62         0.562500   0.062500   0.062500   x 
            x  Al          63         0.437500   0.062500   0.187500   x 
            x  Al          64         0.187500   0.062500   0.187500   x 
            x  Ni           1         0.062500   0.187500   0.187500   x 
            x  Ni           2         0.187500   0.187500   0.062500   x 
            x  Ni           3         0.062500   0.062500   0.062500   x 
            x  Ni           4         0.312500   0.187500   0.187500   x 
            x  Ni           5         0.437500   0.187500   0.062500   x 
            x  Ni           6         0.312500   0.062500   0.062500   x 
            x  Ni           7         0.562500   0.187500   0.187500   x 
            x  Ni           8         0.687500   0.062500   0.187500   x 
            x  Ni           9         0.687500   0.187500   0.062500   x 
            x  Ni          10         0.812500   0.187500   0.187500   x 
            x  Ni          11         0.937500   0.062500   0.187500   x 
            x  Ni          12         0.812500   0.062500   0.062500   x 
            x  Ni          13         0.062500   0.437500   0.187500   x 
            x  Ni          14         0.187500   0.312500   0.187500   x 
            x  Ni          15         0.187500   0.437500   0.062500   x 
            x  Ni          16         0.062500   0.312500   0.062500   x 
            x  Ni          17         0.312500   0.437500   0.187500   x 
            x  Ni          18         0.312500   0.312500   0.062500   x 
            x  Ni          19         0.562500   0.437500   0.187500   x 
            x  Ni          20         0.687500   0.312500   0.187500   x 
            x  Ni          21         0.687500   0.437500   0.062500   x 
            x  Ni          22         0.562500   0.312500   0.062500   x 
            x  Ni          23         0.812500   0.437500   0.187500   x 
            x  Ni          24         0.937500   0.312500   0.187500   x 
            x  Ni          25         0.812500   0.312500   0.062500   x 
            x  Ni          26         0.187500   0.562500   0.187500   x 
            x  Ni          27         0.062500   0.562500   0.062500   x 
            x  Ni          28         0.312500   0.687500   0.187500   x 
            x  Ni          29         0.437500   0.687500   0.062500   x 
            x  Ni          30         0.312500   0.562500   0.062500   x 
            x  Ni          31         0.687500   0.562500   0.187500   x 
            x  Ni          32         0.687500   0.687500   0.062500   x 
            x  Ni          33         0.562500   0.562500   0.062500   x 
            x  Ni          34         0.812500   0.687500   0.187500   x 
            x  Ni          35         0.937500   0.562500   0.187500   x 
            x  Ni          36         0.937500   0.687500   0.062500   x 
            x  Ni          37         0.812500   0.562500   0.062500   x 
            x  Ni          38         0.062500   0.937500   0.187500   x 
            x  Ni          39         0.187500   0.812500   0.187500   x 
            x  Ni          40         0.187500   0.937500   0.062500   x 
            x  Ni          41         0.062500   0.812500   0.062500   x 
            x  Ni          42         0.312500   0.937500   0.187500   x 
            x  Ni          43         0.437500   0.812500   0.187500   x 
            x  Ni          44         0.437500   0.937500   0.062500   x 
            x  Ni          45         0.687500   0.812500   0.187500   x 
            x  Ni          46         0.687500   0.937500   0.062500   x 
            x  Ni          47         0.562500   0.812500   0.062500   x 
            x  Ni          48         0.812500   0.937500   0.187500   x 
            x  Ni          49         0.937500   0.937500   0.062500   x 
            x  Ni          50         0.812500   0.812500   0.062500   x 
            x  Ni          51         0.187500   0.062500   0.437500   x 
            x  Ni          52         0.187500   0.187500   0.312500   x 
            x  Ni          53         0.062500   0.062500   0.312500   x 
            x  Ni          54         0.312500   0.187500   0.437500   x 
            x  Ni          55         0.437500   0.187500   0.312500   x 
            x  Ni          56         0.312500   0.062500   0.312500   x 
            x  Ni          57         0.562500   0.187500   0.437500   x 
            x  Ni          58         0.687500   0.062500   0.437500   x 
            x  Ni          59         0.687500   0.187500   0.312500   x 
            x  Ni          60         0.562500   0.062500   0.312500   x 
            x  Ni          61         0.812500   0.187500   0.437500   x 
            x  Ni          62         0.937500   0.187500   0.312500   x 
            x  Ni          63         0.812500   0.062500   0.312500   x 
            x  Ni          64         0.062500   0.437500   0.437500   x 
            x  Ni          65         0.187500   0.312500   0.437500   x 
            x  Ni          66         0.187500   0.437500   0.312500   x 
            x  Ni          67         0.062500   0.312500   0.312500   x 
            x  Ni          68         0.312500   0.437500   0.437500   x 
            x  Ni          69         0.437500   0.312500   0.437500   x 
            x  Ni          70         0.437500   0.437500   0.312500   x 
            x  Ni          71         0.312500   0.312500   0.312500   x 
            x  Ni          72         0.562500   0.437500   0.437500   x 
            x  Ni          73         0.687500   0.312500   0.437500   x 
            x  Ni          74         0.687500   0.437500   0.312500   x 
            x  Ni          75         0.812500   0.437500   0.437500   x 
            x  Ni          76         0.937500   0.437500   0.312500   x 
            x  Ni          77         0.812500   0.312500   0.312500   x 
            x  Ni          78         0.062500   0.687500   0.437500   x 
            x  Ni          79         0.187500   0.562500   0.437500   x 
            x  Ni          80         0.062500   0.562500   0.312500   x 
            x  Ni          81         0.312500   0.687500   0.437500   x 
            x  Ni          82         0.437500   0.562500   0.437500   x 
            x  Ni          83         0.437500   0.687500   0.312500   x 
            x  Ni          84         0.312500   0.562500   0.312500   x 
            x  Ni          85         0.687500   0.687500   0.312500   x 
            x  Ni          86         0.562500   0.562500   0.312500   x 
            x  Ni          87         0.937500   0.687500   0.312500   x 
            x  Ni          88         0.312500   0.937500   0.437500   x 
            x  Ni          89         0.437500   0.812500   0.437500   x 
            x  Ni          90         0.562500   0.937500   0.437500   x 
            x  Ni          91         0.687500   0.937500   0.312500   x 
            x  Ni          92         0.562500   0.812500   0.312500   x 
            x  Ni          93         0.812500   0.937500   0.437500   x 
            x  Ni          94         0.937500   0.937500   0.312500   x 
            x  Ni          95         0.812500   0.812500   0.312500   x 
            x  Ni          96         0.062500   0.187500   0.687500   x 
            x  Ni          97         0.187500   0.062500   0.687500   x 
            x  Ni          98         0.187500   0.187500   0.562500   x 
            x  Ni          99         0.062500   0.062500   0.562500   x 
            x  Ni         100         0.437500   0.062500   0.687500   x 
            x  Ni         101         0.437500   0.187500   0.562500   x 
            x  Ni         102         0.312500   0.062500   0.562500   x 
            x  Ni         103         0.562500   0.187500   0.687500   x 
            x  Ni         104         0.687500   0.062500   0.687500   x 
            x  Ni         105         0.687500   0.187500   0.562500   x 
            x  Ni         106         0.562500   0.062500   0.562500   x 
            x  Ni         107         0.812500   0.187500   0.687500   x 
            x  Ni         108         0.062500   0.437500   0.687500   x 
            x  Ni         109         0.187500   0.312500   0.687500   x 
            x  Ni         110         0.187500   0.437500   0.562500   x 
            x  Ni         111         0.062500   0.312500   0.562500   x 
            x  Ni         112         0.312500   0.437500   0.687500   x 
            x  Ni         113         0.437500   0.312500   0.687500   x 
            x  Ni         114         0.437500   0.437500   0.562500   x 
            x  Ni         115         0.312500   0.312500   0.562500   x 
            x  Ni         116         0.562500   0.437500   0.687500   x 
            x  Ni         117         0.687500   0.312500   0.687500   x 
            x  Ni         118         0.687500   0.437500   0.562500   x 
            x  Ni         119         0.562500   0.312500   0.562500   x 
            x  Ni         120         0.812500   0.437500   0.687500   x 
            x  Ni         121         0.812500   0.312500   0.562500   x 
            x  Ni         122         0.062500   0.687500   0.687500   x 
            x  Ni         123         0.187500   0.687500   0.562500   x 
            x  Ni         124         0.062500   0.562500   0.562500   x 
            x  Ni         125         0.437500   0.562500   0.687500   x 
            x  Ni         126         0.312500   0.562500   0.562500   x 
            x  Ni         127         0.562500   0.687500   0.687500   x 
            x  Ni         128         0.687500   0.562500   0.687500   x 
            x  Ni         129         0.687500   0.687500   0.562500   x 
            x  Ni         130         0.562500   0.562500   0.562500   x 
            x  Ni         131         0.812500   0.687500   0.687500   x 
            x  Ni         132         0.937500   0.562500   0.687500   x 
            x  Ni         133         0.937500   0.687500   0.562500   x 
            x  Ni         134         0.187500   0.812500   0.687500   x 
            x  Ni         135         0.062500   0.812500   0.562500   x 
            x  Ni         136         0.312500   0.937500   0.687500   x 
            x  Ni         137         0.437500   0.937500   0.562500   x 
            x  Ni         138         0.562500   0.937500   0.687500   x 
            x  Ni         139         0.687500   0.812500   0.687500   x 
            x  Ni         140         0.687500   0.937500   0.562500   x 
            x  Ni         141         0.812500   0.937500   0.687500   x 
            x  Ni         142         0.937500   0.812500   0.687500   x 
            x  Ni         143         0.937500   0.937500   0.562500   x 
            x  Ni         144         0.812500   0.812500   0.562500   x 
            x  Ni         145         0.062500   0.187500   0.937500   x 
            x  Ni         146         0.187500   0.062500   0.937500   x 
            x  Ni         147         0.187500   0.187500   0.812500   x 
            x  Ni         148         0.062500   0.062500   0.812500   x 
            x  Ni         149         0.312500   0.187500   0.937500   x 
            x  Ni         150         0.312500   0.062500   0.812500   x 
            x  Ni         151         0.562500   0.187500   0.937500   x 
            x  Ni         152         0.687500   0.062500   0.937500   x 
            x  Ni         153         0.687500   0.187500   0.812500   x 
            x  Ni         154         0.812500   0.187500   0.937500   x 
            x  Ni         155         0.937500   0.062500   0.937500   x 
            x  Ni         156         0.937500   0.187500   0.812500   x 
            x  Ni         157         0.812500   0.062500   0.812500   x 
            x  Ni         158         0.187500   0.312500   0.937500   x 
            x  Ni         159         0.187500   0.437500   0.812500   x 
            x  Ni         160         0.062500   0.312500   0.812500   x 
            x  Ni         161         0.312500   0.437500   0.937500   x 
            x  Ni         162         0.437500   0.437500   0.812500   x 
            x  Ni         163         0.562500   0.437500   0.937500   x 
            x  Ni         164         0.687500   0.312500   0.937500   x 
            x  Ni         165         0.562500   0.312500   0.812500   x 
            x  Ni         166         0.812500   0.437500   0.937500   x 
            x  Ni         167         0.937500   0.312500   0.937500   x 
            x  Ni         168         0.812500   0.312500   0.812500   x 
            x  Ni         169         0.187500   0.562500   0.937500   x 
            x  Ni         170         0.187500   0.687500   0.812500   x 
            x  Ni         171         0.062500   0.562500   0.812500   x 
            x  Ni         172         0.312500   0.687500   0.937500   x 
            x  Ni         173         0.437500   0.562500   0.937500   x 
            x  Ni         174         0.437500   0.687500   0.812500   x 
            x  Ni         175         0.312500   0.562500   0.812500   x 
            x  Ni         176         0.562500   0.687500   0.937500   x 
            x  Ni         177         0.687500   0.562500   0.937500   x 
            x  Ni         178         0.687500   0.687500   0.812500   x 
            x  Ni         179         0.562500   0.562500   0.812500   x 
            x  Ni         180         0.937500   0.562500   0.937500   x 
            x  Ni         181         0.937500   0.687500   0.812500   x 
            x  Ni         182         0.812500   0.562500   0.812500   x 
            x  Ni         183         0.062500   0.937500   0.937500   x 
            x  Ni         184         0.187500   0.937500   0.812500   x 
            x  Ni         185         0.312500   0.937500   0.937500   x 
            x  Ni         186         0.437500   0.937500   0.812500   x 
            x  Ni         187         0.312500   0.812500   0.812500   x 
            x  Ni         188         0.562500   0.937500   0.937500   x 
            x  Ni         189         0.687500   0.812500   0.937500   x 
            x  Ni         190         0.937500   0.812500   0.937500   x 
            x  Ni         191         0.937500   0.937500   0.812500   x 
            x  Ni         192         0.812500   0.812500   0.812500   x 
            xxxxxxxxxxxxxxxxxxxxxxxxxxxxxxxxxxxxxxxxxxxxxxxxxxxxxxxxxxxx
 
 
                         No user defined ionic velocities
 
                           -------------------------------
                                   Details of Species
                           -------------------------------
 
                               Mass of species in AMU
                                    Al   26.9815400
                                    Ni   58.6934000
 
                          Electric Quadrupole Moment (Barn)
                                    Al    0.1466000 Isotope 27
                                    Ni    0.1620000 Isotope 61
 
                          Files used for pseudopotentials:
                                    Al 3|2.2|2.2|1.4|4|5|5|30:31:32U2U2
                                    Ni 3|2.4|2.4|1.0|8|9|10|40:41:32U2U2(qc=5.5)
 
                           -------------------------------
                              k-Points For BZ Sampling
                           -------------------------------
                       MP grid size for SCF calculation is  1  1  1
                            with an offset of   0.000  0.000  0.000
                       Number of kpoints used =             1
 
                           -------------------------------
                               Symmetry and Constraints
                           -------------------------------
 
                      Maximum deviation from symmetry =  0.00000         ANG
 
                      Number of symmetry operations   =           1
                      Number of ionic constraints     =           3
                      Point group of crystal =     1: C1, 1, 1
                      Space group of crystal =     1: P1, P 1
 
             Set iprint > 1 for details on symmetry rotations/translations
 
                         Centre of mass is constrained
             Set iprint > 1 for details of linear ionic constraints
 
                         Number of cell constraints= 0
                         Cell constraints are:  1 2 3 4 5 6
 
                         External pressure/stress (GPa)
                          0.00000   0.00000   0.00000
                                    0.00000   0.00000
                                              0.00000
  
+---------------- MEMORY AND SCRATCH DISK ESTIMATES PER PROCESS --------------+
|                                                     Memory          Disk    |
| Baseline code, static data and system overhead     6719.0 MB         0.0 MB |
| BLAS internal memory storage                          0.0 MB         0.0 MB |
| Model and support data                              703.7 MB         0.0 MB |
| Electronic energy minimisation requirements         158.6 MB         0.0 MB |
| Force calculation requirements                        5.4 MB         0.0 MB |
|                                               ----------------------------- |
| Approx. total storage required per process         7581.3 MB         0.0 MB |
|                                                                             |
| Requirements will fluctuate during execution and may exceed these estimates |
+-----------------------------------------------------------------------------+
Calculating finite basis set correction with  3 cut-off energies.
Calculating total energy with cut-off of  890.000 eV.
------------------------------------------------------------------------ <-- SCF
SCF loop      Energy           Fermi           Energy gain       Timer   <-- SCF
                               energy          per atom          (sec)   <-- SCF
------------------------------------------------------------------------ <-- SCF
Initial  -2.20443048E+005  0.00000000E+000                        21.61  <-- SCF
      1  -2.63877156E+005  7.18031854E+000   1.69664483E+002      60.53  <-- SCF
      2  -2.70724409E+005  3.83143185E+000   2.67470810E+001      94.40  <-- SCF
      3  -2.71443669E+005  3.75011388E+000   2.80961125E+000     130.85  <-- SCF
      4  -2.71503888E+005  3.87417977E+000   2.35228683E-001     162.61  <-- SCF
      5  -2.71836927E+005  6.72626853E+000   1.30093595E+000     202.47  <-- SCF
      6  -2.71601147E+005  5.73598150E+000  -9.21016573E-001     249.88  <-- SCF
      7  -2.71505662E+005  4.81454468E+000  -3.72987481E-001     290.67  <-- SCF
      8  -2.71477652E+005  4.51820063E+000  -1.09414948E-001     334.43  <-- SCF
      9  -2.71472692E+005  4.51950109E+000  -1.93749604E-002     373.94  <-- SCF
     10  -2.71488679E+005  4.63206362E+000   6.24504964E-002     413.67  <-- SCF
     11  -2.71477186E+005  4.52215526E+000  -4.48954627E-002     454.06  <-- SCF
     12  -2.71470857E+005  4.46871605E+000  -2.47238871E-002     492.88  <-- SCF
     13  -2.71470752E+005  4.47509065E+000  -4.11114894E-004     532.24  <-- SCF
     14  -2.71470971E+005  4.48201278E+000   8.57112778E-004     571.56  <-- SCF
     15  -2.71469930E+005  4.47516843E+000  -4.06495467E-003     610.14  <-- SCF
     16  -2.71469834E+005  4.47681575E+000  -3.77592174E-004     649.89  <-- SCF
     17  -2.71469905E+005  4.48071439E+000   2.78356454E-004     689.17  <-- SCF
     18  -2.71469806E+005  4.48137860E+000  -3.86876986E-004     727.51  <-- SCF
     19  -2.71469806E+005  4.48283285E+000   5.72496674E-007     765.95  <-- SCF
     20  -2.71469848E+005  4.48287392E+000   1.61742207E-004     805.16  <-- SCF
     21  -2.71469799E+005  4.48390829E+000  -1.88976366E-004     843.81  <-- SCF
     22  -2.71469786E+005  4.48413371E+000  -5.23179690E-005     881.94  <-- SCF
     23  -2.71469788E+005  4.48412356E+000   8.83725853E-006     919.94  <-- SCF
     24  -2.71469788E+005  4.48407960E+000  -1.65638241E-006     956.82  <-- SCF
     25  -2.71469784E+005  4.48408685E+000  -1.28302648E-005     992.02  <-- SCF
     26  -2.71469784E+005  4.48401519E+000  -4.44641287E-007    1016.51  <-- SCF
     27  -2.71469784E+005  4.48411120E+000   4.25353611E-007    1041.03  <-- SCF
------------------------------------------------------------------------ <-- SCF
 
Final energy, E             =  -271463.8943006     eV
Final free energy (E-TS)    =  -271469.7843166     eV
(energies not corrected for finite basis set)
 
NB est. 0K energy (E-0.5TS)      =  -271466.8393086     eV
 
Calculating total energy with cut-off of  895.000 eV.
------------------------------------------------------------------------ <-- SCF
SCF loop      Energy           Fermi           Energy gain       Timer   <-- SCF
                               energy          per atom          (sec)   <-- SCF
------------------------------------------------------------------------ <-- SCF
Initial  -2.71463889E+005  0.00000000E+000                      1053.56  <-- SCF
      1  -2.71470032E+005  4.48849179E+000   2.39956752E-002    1091.69  <-- SCF
      2  -2.71470033E+005  4.48849117E+000   1.85568859E-006    1124.11  <-- SCF
      3  -2.71526071E+005  4.76559523E+000   2.18901711E-001    1164.72  <-- SCF
      4  -2.71479854E+005  4.49529153E+000  -1.80538405E-001    1206.00  <-- SCF
      5  -2.71470552E+005  4.46245900E+000  -3.63354390E-002    1245.20  <-- SCF
      6  -2.71469891E+005  4.46396532E+000  -2.58015196E-003    1285.28  <-- SCF
      7  -2.71469901E+005  4.47438380E+000   3.65062643E-005    1324.78  <-- SCF
      8  -2.71469831E+005  4.48784859E+000  -2.71149158E-004    1363.63  <-- SCF
      9  -2.71469803E+005  4.48745777E+000  -1.09223555E-004    1402.27  <-- SCF
     10  -2.71469795E+005  4.48277532E+000  -3.11858308E-005    1440.83  <-- SCF
     11  -2.71469789E+005  4.48116787E+000  -2.42287597E-005    1477.97  <-- SCF
     12  -2.71469789E+005  4.48099238E+000  -1.06229702E-006    1508.27  <-- SCF
     13  -2.71469788E+005  4.48221025E+000  -4.27916001E-006    1537.90  <-- SCF
     14  -2.71469786E+005  4.48305783E+000  -6.55965948E-006    1564.00  <-- SCF
     15  -2.71469786E+005  4.48329824E+000  -1.41001869E-006    1588.55  <-- SCF
     16  -2.71469786E+005  4.48374039E+000   8.82852188E-007    1615.00  <-- SCF
     17  -2.71469785E+005  4.48422565E+000  -4.36043039E-006    1640.55  <-- SCF
     18  -2.71469785E+005  4.48425053E+000  -6.16454074E-007    1664.98  <-- SCF
     19  -2.71469785E+005  4.48420316E+000   9.43770895E-008    1689.37  <-- SCF
------------------------------------------------------------------------ <-- SCF
 
Final energy, E             =  -271463.8943522     eV
Final free energy (E-TS)    =  -271469.7845950     eV
(energies not corrected for finite basis set)
 
NB est. 0K energy (E-0.5TS)      =  -271466.8394736     eV
 
Calculating total energy with cut-off of  900.000 eV.
------------------------------------------------------------------------ <-- SCF
SCF loop      Energy           Fermi           Energy gain       Timer   <-- SCF
                               energy          per atom          (sec)   <-- SCF
------------------------------------------------------------------------ <-- SCF
Initial  -2.71463892E+005  0.00000000E+000                      1701.92  <-- SCF
      1  -2.71469925E+005  4.49095257E+000   2.35670550E-002    1741.00  <-- SCF
      2  -2.71469926E+005  4.49095228E+000   6.97562428E-007    1769.60  <-- SCF
      3  -2.71501907E+005  4.62865847E+000   1.24926368E-001    1811.96  <-- SCF
      4  -2.71475254E+005  4.47842942E+000  -1.04112350E-001    1853.11  <-- SCF
      5  -2.71470113E+005  4.46355067E+000  -2.00824326E-002    1893.65  <-- SCF
      6  -2.71469855E+005  4.46865054E+000  -1.00867568E-003    1934.93  <-- SCF
      7  -2.71469867E+005  4.48085244E+000   5.01499881E-005    1975.87  <-- SCF
      8  -2.71469809E+005  4.48776034E+000  -2.29824421E-004    2015.65  <-- SCF
      9  -2.71469795E+005  4.48740337E+000  -5.22667699E-005    2055.68  <-- SCF
     10  -2.71469791E+005  4.48385346E+000  -1.66944817E-005    2095.00  <-- SCF
     11  -2.71469787E+005  4.48232850E+000  -1.74416968E-005    2132.64  <-- SCF
     12  -2.71469787E+005  4.48245180E+000   2.76077914E-007    2160.30  <-- SCF
     13  -2.71469786E+005  4.48331854E+000  -2.11860778E-006    2188.00  <-- SCF
     14  -2.71469785E+005  4.48395118E+000  -3.68200560E-006    2214.09  <-- SCF
     15  -2.71469785E+005  4.48409771E+000  -5.09506237E-007    2239.19  <-- SCF
     16  -2.71469785E+005  4.48410356E+000   7.74667113E-007    2264.33  <-- SCF
------------------------------------------------------------------------ <-- SCF
 
Final energy, E             =  -271463.8967569     eV
Final free energy (E-TS)    =  -271469.7851567     eV
(energies not corrected for finite basis set)
 
NB est. 0K energy (E-0.5TS)      =  -271466.8409568     eV
 
 For future reference: finite basis dEtot/dlog(Ecut) =      -0.079855eV
 Total energy corrected for finite basis set = -271469.785258 eV
 
+---------------- MEMORY AND SCRATCH DISK ESTIMATES PER PROCESS --------------+
|                                                     Memory          Disk    |
| Model and support data                              723.2 MB         0.0 MB |
| Electronic energy minimisation requirements         158.6 MB         0.0 MB |
| Geometry minimisation requirements                  195.6 MB         0.0 MB |
|                                               ----------------------------- |
| Approx. total storage required per process         1077.4 MB         0.0 MB |
|                                                                             |
| Requirements will fluctuate during execution and may exceed these estimates |
+-----------------------------------------------------------------------------+
 
 
 ************************************** Forces **************************************
 *                                                                                  *
 *                           Cartesian components (eV/A)                            *
 * -------------------------------------------------------------------------------- *
 *                         x                    y                    z              *
 *                                                                                  *
 * Al              1      0.67341              0.03131              0.76554         *
 * Al              2      0.81555             -0.84590             -0.04574         *
 * Al              3      0.79161              0.01077             -0.73868         *
 * Al              4      0.01831             -0.06065             -0.05539         *
 * Al              5     -0.82744             -0.01602             -0.71612         *
 * Al              6      0.73722              1.53855             -0.79580         *
 * Al              7     -0.11692             -0.02133             -0.01332         *
 * Al              8     -1.55694             -1.58467             -0.02536         *
 * Al              9     -0.76970              0.75777              0.00507         *
 * Al             10     -0.02487              0.01962             -0.00706         *
 * Al             11     -1.50825              1.55953              0.00009         *
 * Al             12      0.76934              0.11422              0.74622         *
 * Al             13      1.52747             -0.09015             -0.03972         *
 * Al             14      0.81389              0.08400             -0.74832         *
 * Al             15      0.77852             -0.01393             -0.77319         *
 * Al             16     -1.47370             -0.67862              0.77129         *
 * Al             17      0.70301              1.53606              0.73179         *
 * Al             18      0.22922              0.65085             -0.56065         *
 * Al             19     -0.11975              1.29414              1.34405         *
 * Al             20      0.80805              1.51486              0.77540         *
 * Al             21     -0.05342              0.02618              0.12241         *
 * Al             22     -0.73941             -0.01658              2.27702         *
 * Al             23     -0.06576             -2.23715             -0.53909         *
 * Al             24     -0.47728             -0.70000              1.32866         *
 * Al             25     -0.68300             -0.84932              0.02239         *
 * Al             26      0.81532              0.01894              0.73292         *
 * Al             27     -0.04558             -0.74453              0.86430         *
 * Al             28     -2.31341             -0.71272             -0.02124         *
 * Al             29     -0.07849              0.79903              0.77957         *
 * Al             30     -0.02110              0.08425              1.64639         *
 * Al             31     -0.73465             -0.69300             -1.52224         *
 * Al             32     -0.83969              0.01923              0.78768         *
 * Al             33      0.74263              1.59975             -0.77624         *
 * Al             34      1.52219             -0.78561             -0.78281         *
 * Al             35      0.08868             -0.72899              0.70053         *
 * Al             36     -0.54631              0.15155             -0.59442         *
 * Al             37      0.62986              1.44181             -0.58156         *
 * Al             38     -0.18564             -1.33703              1.31834         *
 * Al             39     -0.58627              1.39257              0.58103         *
 * Al             40     -0.01373             -0.76461             -2.20670         *
 * Al             41      2.20770             -0.06307             -0.80890         *
 * Al             42      0.05299              1.43143              0.01926         *
 * Al             43     -1.53655             -1.55331             -0.01168         *
 * Al             44     -0.88143             -0.82164             -1.47057         *
 * Al             45      0.74972             -2.32830             -0.00683         *
 * Al             46     -0.67871              0.70612             -1.61954         *
 * Al             47      0.73353             -0.03093              0.80832         *
 * Al             48     -0.85323             -0.64181             -1.52690         *
 * Al             49      0.04507              0.87459              0.77702         *
 * Al             50      2.26804              0.12089             -0.88796         *
 * Al             51     -1.61756              0.71891             -0.88507         *
 * Al             52      1.54423             -1.46464             -0.01964         *
 * Al             53      0.77948              0.74027              1.43032         *
 * Al             54      0.70852              0.75111             -0.04108         *
 * Al             55     -0.81142             -0.03745              0.78427         *
 * Al             56      0.81471             -1.61208              0.68410         *
 * Al             57     -0.75606             -1.60147             -0.69398         *
 * Al             58     -0.80454             -0.08466              0.76125         *
 * Al             59     -0.03362              0.72490             -0.73584         *
 * Al             60     -0.76108             -0.71971              0.05534         *
 * Al             61      0.01078              0.00074              0.03058         *
 * Al             62      1.64051              0.86915             -0.69071         *
 * Al             63     -1.52380              1.56890              0.06395         *
 * Al             64      0.03772              0.85256             -0.77552         *
 * Ni              1     -0.02084              0.11731              0.15556         *
 * Ni              2     -0.01496              0.00456             -0.05725         *
 * Ni              3     -0.02889             -0.07372             -0.10466         *
 * Ni              4     -0.08293              0.12390             -0.04550         *
 * Ni              5     -0.05177             -0.26748             -0.02895         *
 * Ni              6     -0.13961             -0.02982             -0.04690         *
 * Ni              7      0.16923              0.05184             -0.02480         *
 * Ni              8      0.07138              0.02545             -0.04781         *
 * Ni              9      0.11749              0.01241              0.07917         *
 * Ni             10     -0.08581              0.04461              0.11010         *
 * Ni             11     -0.03107             -0.09148              0.01162         *
 * Ni             12     -0.12002              0.01719              0.11939         *
 * Ni             13      0.04952              0.04634              0.11049         *
 * Ni             14     -0.09801             -0.04324              0.00920         *
 * Ni             15      0.16047              0.04301              0.02251         *
 * Ni             16      0.12248              0.11098              0.06257         *
 * Ni             17      0.14728             -0.03368             -0.07266         *
 * Ni             18     -0.02396              0.10618              0.00004         *
 * Ni             19     -0.00968             -0.08591             -0.22422         *
 * Ni             20      0.17086             -0.01626             -0.09535         *
 * Ni             21     -0.06201              0.00515              0.02875         *
 * Ni             22     -0.00363              0.12096              0.05829         *
 * Ni             23     -0.15739             -0.15701              0.03389         *
 * Ni             24     -0.02746              0.02038              0.12766         *
 * Ni             25     -0.15397             -0.04575             -0.05389         *
 * Ni             26     -0.03827              0.12808             -0.00348         *
 * Ni             27      0.18458              0.08095              0.06063         *
 * Ni             28     -0.11817              0.06787             -0.06185         *
 * Ni             29      0.06846             -0.18133             -0.27193         *
 * Ni             30      0.09157             -0.15996             -0.07628         *
 * Ni             31      0.00338             -0.19856             -0.16425         *
 * Ni             32     -0.00417              0.04714              0.09431         *
 * Ni             33     -0.03082             -0.02029              0.04828         *
 * Ni             34     -0.13380             -0.06258             -0.18140         *
 * Ni             35      0.03745             -0.10481             -0.14530         *
 * Ni             36     -0.03823             -0.08992              0.25301         *
 * Ni             37     -0.08370              0.02192              0.13799         *
 * Ni             38      0.05376              0.02977              0.02824         *
 * Ni             39     -0.45024             -0.11610              0.30786         *
 * Ni             40     -0.01357             -0.04988             -0.24405         *
 * Ni             41      0.26509             -0.16608             -0.24760         *
 * Ni             42     -0.12714              0.07711              0.19331         *
 * Ni             43     -0.02474              0.00887              0.17186         *
 * Ni             44      0.20602              0.35869              0.09604         *
 * Ni             45      0.17980              0.02136             -0.04447         *
 * Ni             46     -0.10581             -0.04789              0.07561         *
 * Ni             47      0.17358             -0.09226             -0.06546         *
 * Ni             48     -0.08199              0.13557              0.02935         *
 * Ni             49      0.08210              0.11981             -0.03637         *
 * Ni             50     -0.12006             -0.01662              0.11288         *
 * Ni             51      0.14093             -0.09085              0.06987         *
 * Ni             52      0.18826              0.17227              0.01026         *
 * Ni             53     -0.16738             -0.06655              0.03741         *
 * Ni             54     -0.08399              0.04249              0.00807         *
 * Ni             55     -0.08743              0.25873              0.05037         *
 * Ni             56      0.00620              0.18449              0.17274         *
 * Ni             57      0.18505              0.01311              0.11113         *
 * Ni             58     -0.12711              0.00105             -0.06899         *
 * Ni             59      0.06689             -0.00698              0.00128         *
 * Ni             60     -0.25650             -0.19546             -0.23596         *
 * Ni             61      0.21506             -0.14764              0.25226         *
 * Ni             62      0.07843              0.03362              0.14294         *
 * Ni             63     -0.09932             -0.03238             -0.09447         *
 * Ni             64     -0.02886             -0.06775              0.13681         *
 * Ni             65      0.14366              0.06119              0.01173         *
 * Ni             66      0.02207              0.00575              0.06906         *
 * Ni             67      0.02765             -0.03349             -0.02619         *
 * Ni             68      0.02447              0.00099             -0.08153         *
 * Ni             69     -0.10993             -0.06178              0.16284         *
 * Ni             70     -0.01682             -0.14503              0.15504         *
 * Ni             71     -0.06671             -0.03874              0.08063         *
 * Ni             72     -0.11702             -0.04204              0.13167         *
 * Ni             73     -0.04461              0.04011              0.02829         *
 * Ni             74      0.12153              0.01783             -0.01766         *
 * Ni             75      0.09378              0.32112              0.29705         *
 * Ni             76     -0.03010              0.10253             -0.13777         *
 * Ni             77     -0.13266              0.01896             -0.20833         *
 * Ni             78      0.29255              0.28564             -0.13404         *
 * Ni             79      0.01546             -0.08804              0.11561         *
 * Ni             80      0.19170             -0.15822             -0.15540         *
 * Ni             81     -0.39017              0.07475             -0.19498         *
 * Ni             82     -0.01759              0.05687             -0.01870         *
 * Ni             83      0.04480             -0.20299             -0.02175         *
 * Ni             84      0.01980             -0.18201              0.13730         *
 * Ni             85      0.37378             -0.08215              0.40694         *
 * Ni             86      0.04296             -0.19736              0.00637         *
 * Ni             87     -0.00673              0.20975              0.13660         *
 * Ni             88     -0.35575             -0.44943             -0.18909         *
 * Ni             89      0.22001             -0.19752              0.30797         *
 * Ni             90      0.14855              0.20393              0.05802         *
 * Ni             91      0.14482              0.13114             -0.01117         *
 * Ni             92      0.14689              0.00386             -0.00157         *
 * Ni             93     -0.01869              0.21838             -0.12589         *
 * Ni             94      0.18168             -0.23518              0.30152         *
 * Ni             95     -0.26670             -0.04095              0.08149         *
 * Ni             96     -0.01930              0.04954             -0.09479         *
 * Ni             97     -0.09460             -0.14143              0.09154         *
 * Ni             98      0.08717             -0.00282              0.05319         *
 * Ni             99     -0.10318              0.22738             -0.07107         *
 * Ni            100      0.02815              0.05601             -0.07853         *
 * Ni            101      0.17789              0.11846              0.00318         *
 * Ni            102     -0.05839              0.08301             -0.04626         *
 * Ni            103      0.03077              0.02396             -0.08780         *
 * Ni            104     -0.17464              0.08961              0.14220         *
 * Ni            105     -0.12501              0.06260             -0.08754         *
 * Ni            106      0.14864              0.02022              0.08367         *
 * Ni            107      0.24433             -0.14386             -0.29780         *
 * Ni            108     -0.15503             -0.25170             -0.00175         *
 * Ni            109      0.06008              0.07824             -0.00910         *
 * Ni            110      0.00456             -0.06928             -0.07800         *
 * Ni            111     -0.41886             -0.15792             -0.18768         *
 * Ni            112      0.12531              0.05022             -0.15528         *
 * Ni            113     -0.15315             -0.22413              0.16687         *
 * Ni            114      0.02038              0.06640             -0.10836         *
 * Ni            115     -0.06738              0.08188             -0.05481         *
 * Ni            116      0.03154             -0.01274             -0.02566         *
 * Ni            117     -0.06207             -0.05143             -0.06554         *
 * Ni            118     -0.08655             -0.00950             -0.01364         *
 * Ni            119     -0.01551              0.02267             -0.04833         *
 * Ni            120      0.17022             -0.16603             -0.22379         *
 * Ni            121      0.24562             -0.03554              0.05454         *
 * Ni            122     -0.09095             -0.08131             -0.09697         *
 * Ni            123      0.06779              0.01666              0.02972         *
 * Ni            124     -0.10120             -0.05916             -0.08812         *
 * Ni            125     -0.00425             -0.10816             -0.01847         *
 * Ni            126      0.00385             -0.02799              0.01521         *
 * Ni            127     -0.23787              0.19540             -0.12002         *
 * Ni            128     -0.07843              0.06555              0.05890         *
 * Ni            129      0.00963              0.02483             -0.39703         *
 * Ni            130      0.02334              0.04197             -0.07314         *
 * Ni            131     -0.02649              0.00053              0.11152         *
 * Ni            132      0.10004              0.14961             -0.04093         *
 * Ni            133     -0.24866             -0.14972             -0.12890         *
 * Ni            134     -0.05233              0.20856             -0.09458         *
 * Ni            135      0.27036              0.23185             -0.19350         *
 * Ni            136      0.03248              0.08276             -0.00754         *
 * Ni            137      0.03856             -0.01717              0.27377         *
 * Ni            138      0.00460             -0.05113              0.03578         *
 * Ni            139      0.08015             -0.02403              0.18037         *
 * Ni            140     -0.06266             -0.09133              0.10809         *
 * Ni            141      0.11001             -0.06583             -0.15191         *
 * Ni            142     -0.00546             -0.00931              0.10759         *
 * Ni            143     -0.19416              0.05322              0.02067         *
 * Ni            144      0.01256             -0.07220             -0.11536         *
 * Ni            145      0.08245              0.08600             -0.01572         *
 * Ni            146     -0.04569             -0.00350              0.01455         *
 * Ni            147      0.10585              0.00725              0.02347         *
 * Ni            148     -0.05734             -0.01224             -0.01224         *
 * Ni            149      0.19189              0.17650             -0.20385         *
 * Ni            150     -0.00108              0.17073              0.03079         *
 * Ni            151     -0.24966             -0.20118             -0.24328         *
 * Ni            152      0.24528              0.07209             -0.10837         *
 * Ni            153     -0.01729              0.11136              0.01245         *
 * Ni            154     -0.12939             -0.01826             -0.10471         *
 * Ni            155      0.02885              0.00188             -0.15959         *
 * Ni            156      0.06347             -0.00886              0.17324         *
 * Ni            157     -0.12148              0.15950              0.15419         *
 * Ni            158     -0.06781             -0.11209              0.14651         *
 * Ni            159      0.00167              0.02022              0.01885         *
 * Ni            160     -0.01405              0.09199             -0.01052         *
 * Ni            161      0.04431             -0.12248              0.04324         *
 * Ni            162      0.01916             -0.05733             -0.00489         *
 * Ni            163     -0.08738              0.00787              0.08793         *
 * Ni            164      0.05586             -0.11939              0.09912         *
 * Ni            165     -0.02618             -0.08572             -0.05021         *
 * Ni            166     -0.15616              0.01934              0.10497         *
 * Ni            167      0.07738              0.15391             -0.10488         *
 * Ni            168      0.07908             -0.16711              0.07644         *
 * Ni            169      0.01125              0.03022             -0.09908         *
 * Ni            170     -0.03560              0.05197              0.36403         *
 * Ni            171     -0.15123              0.02984             -0.01356         *
 * Ni            172     -0.18968              0.24725              0.18957         *
 * Ni            173      0.08844             -0.00449             -0.02625         *
 * Ni            174      0.19235              0.02607             -0.02809         *
 * Ni            175     -0.05108             -0.12365             -0.02282         *
 * Ni            176      0.00594             -0.06935              0.02891         *
 * Ni            177      0.00963              0.03738              0.06314         *
 * Ni            178     -0.00394             -0.15614             -0.08987         *
 * Ni            179     -0.08341              0.09944              0.07133         *
 * Ni            180      0.00432             -0.27435             -0.01269         *
 * Ni            181      0.17185             -0.03348             -0.16648         *
 * Ni            182     -0.01602              0.05690             -0.25031         *
 * Ni            183     -0.02049              0.07275             -0.02729         *
 * Ni            184     -0.10001             -0.01409              0.03426         *
 * Ni            185     -0.08869             -0.08074              0.09891         *
 * Ni            186     -0.14028             -0.02233             -0.03193         *
 * Ni            187     -0.05053              0.07471             -0.09049         *
 * Ni            188      0.13414             -0.00937             -0.09562         *
 * Ni            189     -0.15561              0.15009              0.03781         *
 * Ni            190      0.09908              0.00399              0.14407         *
 * Ni            191      0.16252             -0.03679             -0.17475         *
 * Ni            192      0.09069              0.03885             -0.09406         *
 *                                                                                  *
 ************************************************************************************
 
 ***************** Stress Tensor *****************
 *                                               *
 *          Cartesian components (GPa)           *
 * --------------------------------------------- *
 *             x             y             z     *
 *                                               *
 *  x     -0.790412      0.097547      0.040412  *
 *  y      0.097547      0.076978     -0.195142  *
 *  z      0.040412     -0.195142     -0.593654  *
 *                                               *
 *  Pressure:    0.4357                          *
 *                                               *
 *************************************************
 EXP precond LBFGS => estimated nearest neighbor distance :  2.555       A
 EXP precond LBFGS => estimated cutoff distance :  5.110       A
 
 ************************************** Forces **************************************
 *                                                                                  *
 *                           Cartesian components (eV/A)                            *
 * -------------------------------------------------------------------------------- *
 *                         x                    y                    z              *
 *                                                                                  *
 * Al              1      0.67341              0.03131              0.76554         *
 * Al              2      0.81555             -0.84590             -0.04574         *
 * Al              3      0.79161              0.01077             -0.73868         *
 * Al              4      0.01831             -0.06065             -0.05539         *
 * Al              5     -0.82744             -0.01602             -0.71612         *
 * Al              6      0.73722              1.53855             -0.79580         *
 * Al              7     -0.11692             -0.02133             -0.01332         *
 * Al              8     -1.55694             -1.58467             -0.02536         *
 * Al              9     -0.76970              0.75777              0.00507         *
 * Al             10     -0.02487              0.01962             -0.00706         *
 * Al             11     -1.50825              1.55953              0.00009         *
 * Al             12      0.76934              0.11422              0.74622         *
 * Al             13      1.52747             -0.09015             -0.03972         *
 * Al             14      0.81389              0.08400             -0.74832         *
 * Al             15      0.77852             -0.01393             -0.77319         *
 * Al             16     -1.47370             -0.67862              0.77129         *
 * Al             17      0.70301              1.53606              0.73179         *
 * Al             18      0.22922              0.65085             -0.56065         *
 * Al             19     -0.11975              1.29414              1.34405         *
 * Al             20      0.80805              1.51486              0.77540         *
 * Al             21     -0.05342              0.02618              0.12241         *
 * Al             22     -0.73941             -0.01658              2.27702         *
 * Al             23     -0.06576             -2.23715             -0.53909         *
 * Al             24     -0.47728             -0.70000              1.32866         *
 * Al             25     -0.68300             -0.84932              0.02239         *
 * Al             26      0.81532              0.01894              0.73292         *
 * Al             27     -0.04558             -0.74453              0.86430         *
 * Al             28     -2.31341             -0.71272             -0.02124         *
 * Al             29     -0.07849              0.79903              0.77957         *
 * Al             30     -0.02110              0.08425              1.64639         *
 * Al             31     -0.73465             -0.69300             -1.52224         *
 * Al             32     -0.83969              0.01923              0.78768         *
 * Al             33      0.74263              1.59975             -0.77624         *
 * Al             34      1.52219             -0.78561             -0.78281         *
 * Al             35      0.08868             -0.72899              0.70053         *
 * Al             36     -0.54631              0.15155             -0.59442         *
 * Al             37      0.62986              1.44181             -0.58156         *
 * Al             38     -0.18564             -1.33703              1.31834         *
 * Al             39     -0.58627              1.39257              0.58103         *
 * Al             40     -0.01373             -0.76461             -2.20670         *
 * Al             41      2.20770             -0.06307             -0.80890         *
 * Al             42      0.05299              1.43143              0.01926         *
 * Al             43     -1.53655             -1.55331             -0.01168         *
 * Al             44     -0.88143             -0.82164             -1.47057         *
 * Al             45      0.74972             -2.32830             -0.00683         *
 * Al             46     -0.67871              0.70612             -1.61954         *
 * Al             47      0.73353             -0.03093              0.80832         *
 * Al             48     -0.85323             -0.64181             -1.52690         *
 * Al             49      0.04507              0.87459              0.77702         *
 * Al             50      2.26804              0.12089             -0.88796         *
 * Al             51     -1.61756              0.71891             -0.88507         *
 * Al             52      1.54423             -1.46464             -0.01964         *
 * Al             53      0.77948              0.74027              1.43032         *
 * Al             54      0.70852              0.75111             -0.04108         *
 * Al             55     -0.81142             -0.03745              0.78427         *
 * Al             56      0.81471             -1.61208              0.68410         *
 * Al             57     -0.75606             -1.60147             -0.69398         *
 * Al             58     -0.80454             -0.08466              0.76125         *
 * Al             59     -0.03362              0.72490             -0.73584         *
 * Al             60     -0.76108             -0.71971              0.05534         *
 * Al             61      0.01078              0.00074              0.03058         *
 * Al             62      1.64051              0.86915             -0.69071         *
 * Al             63     -1.52380              1.56890              0.06395         *
 * Al             64      0.03772              0.85256             -0.77552         *
 * Ni              1     -0.02084              0.11731              0.15556         *
 * Ni              2     -0.01496              0.00456             -0.05725         *
 * Ni              3     -0.02889             -0.07372             -0.10466         *
 * Ni              4     -0.08293              0.12390             -0.04550         *
 * Ni              5     -0.05177             -0.26748             -0.02895         *
 * Ni              6     -0.13961             -0.02982             -0.04690         *
 * Ni              7      0.16923              0.05184             -0.02480         *
 * Ni              8      0.07138              0.02545             -0.04781         *
 * Ni              9      0.11749              0.01241              0.07917         *
 * Ni             10     -0.08581              0.04461              0.11010         *
 * Ni             11     -0.03107             -0.09148              0.01162         *
 * Ni             12     -0.12002              0.01719              0.11939         *
 * Ni             13      0.04952              0.04634              0.11049         *
 * Ni             14     -0.09801             -0.04324              0.00920         *
 * Ni             15      0.16047              0.04301              0.02251         *
 * Ni             16      0.12248              0.11098              0.06257         *
 * Ni             17      0.14728             -0.03368             -0.07266         *
 * Ni             18     -0.02396              0.10618              0.00004         *
 * Ni             19     -0.00968             -0.08591             -0.22422         *
 * Ni             20      0.17086             -0.01626             -0.09535         *
 * Ni             21     -0.06201              0.00515              0.02875         *
 * Ni             22     -0.00363              0.12096              0.05829         *
 * Ni             23     -0.15739             -0.15701              0.03389         *
 * Ni             24     -0.02746              0.02038              0.12766         *
 * Ni             25     -0.15397             -0.04575             -0.05389         *
 * Ni             26     -0.03827              0.12808             -0.00348         *
 * Ni             27      0.18458              0.08095              0.06063         *
 * Ni             28     -0.11817              0.06787             -0.06185         *
 * Ni             29      0.06846             -0.18133             -0.27193         *
 * Ni             30      0.09157             -0.15996             -0.07628         *
 * Ni             31      0.00338             -0.19856             -0.16425         *
 * Ni             32     -0.00417              0.04714              0.09431         *
 * Ni             33     -0.03082             -0.02029              0.04828         *
 * Ni             34     -0.13380             -0.06258             -0.18140         *
 * Ni             35      0.03745             -0.10481             -0.14530         *
 * Ni             36     -0.03823             -0.08992              0.25301         *
[...]
            Ni 58  -- Ni 105                 0.03        2.60386
            Ni 73  -- Ni 119                 0.09        2.60400
            Ni 137 -- Ni 138                 0.03        2.60402
             Al 25 -- Ni 126                 0.17        2.60408
            Ni 159 -- Ni 161                 0.09        2.60429
            Ni 122 -- Ni 171                 0.05        2.60446
            Ni 127 -- Ni 179                 0.10        2.60448
            Ni 65  -- Ni 111                 0.07        2.60455
            Ni 89  -- Ni 92                  0.08        2.60492
            Ni 35  -- Ni 80                  0.02        2.60529
            Ni 108 -- Ni 110                 0.09        2.60535
             Al 24 -- Ni 134                 0.20        2.60542
             Al 2  -- Ni 188                 0.17        2.60583
            Ni 151 -- Ni 152                 0.06        2.60612
            Ni 93  -- Ni 144                -0.00        2.60620
            Ni 176 -- Ni 189                 0.08        2.60627
            Ni 125 -- Ni 126                -0.01        2.60638
             Al 49 -- Ni 60                  0.18        2.60696
            Ni 6   -- Ni 44                  0.03        2.60698
            Ni 75  -- Ni 118                 0.01        2.60777
             Al 25 -- Ni 123                 0.19        2.60822
             Al 47 -- Ni 19                  0.17        2.60868
            Ni 96  -- Ni 156                -0.01        2.60869
            Ni 7   -- Ni 55                 -0.01        2.60879
             Al 18 -- Ni 136                 0.13        2.60895
             Al 57 -- Ni 26                  0.13        2.60897
            Ni 98  -- Ni 102                 0.03        2.60899
            Ni 61  -- Ni 63                  0.03        2.60903
             Al 64 -- Ni 53                  0.18        2.60911
             Al 37 -- Al 64                  0.26        2.60914
            Ni 41  -- Ni 183                 0.08        2.60930
            Ni 104 -- Ni 105                 0.07        2.60957
             Al 23 -- Ni 89                  0.21        2.60968
             Al 5  -- Al 21                  0.25        2.60980
            Ni 172 -- Ni 173                 0.11        2.60984
            Ni 122 -- Ni 170                 0.05        2.60989
            Ni 54  -- Ni 101                 0.04        2.61036
            Ni 29  -- Ni 43                  0.05        2.61041
            Ni 88  -- Ni 89                  0.06        2.61048
            Ni 142 -- Ni 143                 0.06        2.61056
            Ni 1   -- Ni 2                   0.06        2.61057
            Ni 90  -- Ni 92                  0.03        2.61058
            Ni 172 -- Ni 174                 0.08        2.61078
             Al 58 -- Ni 27                  0.17        2.61127
             Al 3  -- Ni 152                 0.14        2.61157
            Ni 174 -- Ni 187                -0.06        2.61174
            Ni 2   -- Ni 149                 0.10        2.61178
            Ni 171 -- Ni 180                -0.00        2.61181
            Ni 178 -- Ni 192                 0.05        2.61187
             Al 37 -- Ni 39                  0.22        2.61196
            Ni 85  -- Ni 92                  0.03        2.61218
            Ni 79  -- Ni 84                  0.06        2.61229
            Ni 24  -- Ni 25                  0.01        2.61277
            Ni 154 -- Ni 167                 0.08        2.61285
             Al 50 -- Ni 62                  0.18        2.61289
             Al 32 -- Ni 95                  0.15        2.61292
            Ni 169 -- Ni 171                -0.00        2.61304
            Ni 34  -- Ni 95                  0.01        2.61320
            Ni 75  -- Ni 76                 -0.02        2.61373
            Ni 81  -- Ni 83                  0.04        2.61398
            Ni 48  -- Ni 94                  0.07        2.61428
            Ni 190 -- Ni 191                 0.04        2.61438
             Al 43 -- Ni 85                  0.14        2.61477
             Al 18 -- Ni 81                  0.12        2.61486
            Ni 122 -- Ni 135                 0.12        2.61504
            Ni 103 -- Ni 113                 0.04        2.61515
             Al 31 -- Ni 100                 0.16        2.61522
            Ni 157 -- Ni 191                 0.05        2.61532
             Al 18 -- Ni 134                 0.18        2.61592
            Ni 17  -- Ni 66                  0.11        2.61593
             Al 29 -- Ni 96                  0.10        2.61636
            Ni 83  -- Ni 89                  0.03        2.61720
            Ni 72  -- Ni 118                 0.03        2.61731
            Ni 108 -- Ni 111                 0.04        2.61750
             Al 14 -- Al 15                  0.25        2.61756
            Ni 44  -- Ni 188                 0.05        2.61806
            Ni 104 -- Ni 141                 0.00        2.61809
            Ni 79  -- Ni 80                  0.03        2.61839
            Ni 117 -- Ni 121                 0.10        2.61859
            Ni 120 -- Ni 132                -0.04        2.61862
             Al 53 -- Ni 29                  0.15        2.61872
            Ni 166 -- Ni 182                 0.02        2.61878
             Al 55 -- Al 59                  0.26        2.61910
             Al 1  -- Ni 157                 0.16        2.62023
            Ni 127 -- Ni 129                 0.10        2.62057
             Al 27 -- Ni 121                 0.11        2.62066
            Ni 90  -- Ni 91                  0.03        2.62079
             Al 18 -- Ni 123                 0.17        2.62097
             Al 45 -- Ni 39                  0.19        2.62131
            Ni 64  -- Ni 76                  0.01        2.62146
             Al 20 -- Al 21                  0.25        2.62224
             Al 44 -- Ni 130                 0.13        2.62254
            Ni 45  -- Ni 47                  0.02        2.62262
             Al 43 -- Al 44                  0.23        2.62295
             Al 19 -- Ni 127                 0.13        2.62312
            Ni 180 -- Ni 182                -0.00        2.62316
            Ni 129 -- Ni 139                 0.09        2.62321
            Ni 181 -- Ni 190                -0.03        2.62329
            Ni 109 -- Ni 111                 0.09        2.62332
             Al 48 -- Ni 143                 0.17        2.62379
             Al 9  -- Al 27                  0.24        2.62416
             Al 52 -- Ni 60                  0.17        2.62502
            Ni 48  -- Ni 50                  0.07        2.62550
            Ni 125 -- Ni 130                 0.08        2.62649
            Ni 146 -- Ni 149                 0.11        2.62664
            Ni 36  -- Ni 41                 -0.03        2.62695
             Al 5  -- Ni 134                 0.16        2.62726
            Ni 59  -- Ni 73                  0.05        2.62774
             Al 16 -- Ni 151                 0.15        2.62786
             Al 56 -- Ni 41                  0.17        2.62842
            Ni 22  -- Ni 151                 0.06        2.62871
            Ni 73  -- Ni 75                  0.09        2.62876
             Al 35 -- Ni 56                  0.14        2.62926
             Al 64 -- Ni 42                  0.18        2.63030
             Al 5  -- Ni 183                 0.16        2.63062
            Ni 38  -- Ni 41                  0.09        2.63063
            Ni 83  -- Ni 92                  0.01        2.63087
            Ni 123 -- Ni 135                 0.03        2.63117
            Ni 93  -- Ni 140                 0.01        2.63132
            Ni 39  -- Ni 40                  0.09        2.63167
             Al 47 -- Ni 69                  0.16        2.63229
             Al 3  -- Al 14                  0.25        2.63265
            Ni 4   -- Ni 56                  0.02        2.63269
             Al 18 -- Al 19                  0.30        2.63301
            Ni 51  -- Ni 53                 -0.07        2.63421
             Al 33 -- Ni 85                  0.15        2.63433
             Al 31 -- Ni 113                 0.15        2.63465
            Ni 89  -- Ni 90                  0.03        2.63541
            Ni 28  -- Ni 84                  0.03        2.63554
            Ni 40  -- Ni 42                  0.05        2.63554
            Ni 143 -- Ni 144                 0.02        2.63583
            Ni 184 -- Ni 185                 0.08        2.63592
            Ni 85  -- Ni 86                  0.01        2.63592
            Ni 78  -- Ni 123                 0.08        2.63624
             Al 55 -- Ni 33                  0.15        2.63675
             Al 54 -- Ni 86                  0.16        2.63731
            Ni 172 -- Ni 175                 0.11        2.63802
            Ni 52  -- Ni 53                  0.03        2.63957
             Al 32 -- Ni 78                  0.14        2.64081
            Ni 42  -- Ni 44                  0.07        2.64179
            Ni 128 -- Ni 129                 0.11        2.64201
             Al 2  -- Al 3                   0.23        2.64205
             Al 12 -- Al 15                  0.23        2.64235
            Ni 150 -- Ni 185                 0.09        2.64282
             Al 1  -- Ni 192                 0.15        2.64315
            Ni 45  -- Ni 85                  0.05        2.64329
            Ni 174 -- Ni 175                 0.08        2.64346
             Al 20 -- Ni 99                  0.14        2.64356
             Al 64 -- Ni 38                  0.17        2.64419
            Ni 6   -- Ni 149                 0.06        2.64456
             Al 51 -- Ni 87                  0.19        2.64478
            Ni 135 -- Ni 143                -0.02        2.64586
            Ni 4   -- Ni 55                  0.01        2.64638
            Ni 170 -- Ni 175                 0.08        2.64674
             Al 13 -- Ni 180                 0.15        2.64709
            Ni 27  -- Ni 36                 -0.01        2.64858
             Al 4  -- Ni 44                  0.17        2.65050
            Ni 57  -- Ni 60                  0.06        2.65052
             Al 24 -- Al 25                  0.25        2.65096
             Al 20 -- Al 39                  0.23        2.65145
            Ni 31  -- Ni 85                  0.03        2.65224
            Ni 82  -- Ni 126                 0.07        2.65237
            Ni 42  -- Ni 43                 -0.00        2.65327
            Ni 28  -- Ni 43                  0.01        2.65461
             Al 55 -- Ni 29                  0.16        2.65470
             Al 34 -- Ni 89                  0.14        2.65505
             Al 1  -- Al 3                   0.24        2.65513
            Ni 141 -- Ni 157                -0.02        2.65527
             Al 33 -- Ni 129                 0.12        2.65562
             Al 56 -- Al 57                  0.22        2.65597
             Al 33 -- Al 42                  0.21        2.65599
             Al 24 -- Ni 126                 0.15        2.65611
             Al 56 -- Ni 39                  0.16        2.65619
            Ni 58  -- Ni 140                 0.03        2.65733
             Al 54 -- Ni 29                  0.14        2.65734
             Al 23 -- Al 44                  0.21        2.65753
            Ni 108 -- Ni 124                -0.01        2.65798
             Al 43 -- Ni 129                 0.12        2.65803
             Al 5  -- Ni 184                 0.14        2.65804
            Ni 51  -- Ni 99                 -0.03        2.65847
            Ni 127 -- Ni 178                 0.08        2.65859
            Ni 41  -- Ni 49                  0.07        2.65991
            Ni 134 -- Ni 170                 0.09        2.66067
             Al 18 -- Al 20                  0.22        2.66152
             Al 16 -- Ni 188                 0.11        2.66168
             Al 15 -- Al 31                  0.21        2.66226
            Ni 9   -- Ni 151                 0.08        2.66247
             Al 51 -- Ni 41                  0.17        2.66295
             Al 25 -- Ni 175                 0.15        2.66315
             Al 40 -- Ni 87                  0.16        2.66374
            Ni 180 -- Ni 181                 0.03        2.66542
            Ni 63  -- Ni 94                  0.04        2.66666
            Ni 49  -- Ni 50                 -0.01        2.66677
            Ni 44  -- Ni 185                 0.02        2.66789
            Ni 72  -- Ni 74                 -0.01        2.66874
             Al 46 -- Ni 111                 0.12        2.66887
             Al 2  -- Al 4                   0.24        2.66921
             Al 51 -- Ni 38                  0.17        2.66962
             Al 30 -- Ni 143                 0.17        2.67041
             Al 29 -- Al 30                  0.24        2.67050
             Al 3  -- Ni 188                 0.15        2.67214
             Al 32 -- Al 39                  0.23        2.67218
            Ni 107 -- Ni 156                -0.01        2.67235
            Ni 78  -- Ni 80                 -0.00        2.67296
             Al 32 -- Ni 87                  0.13        2.67322
            Ni 88  -- Ni 137                 0.08        2.67594
             Al 27 -- Ni 111                 0.11        2.67712
            Ni 35  -- Ni 87                  0.06        2.67872
             Al 4  -- Al 53                  0.24        2.68011
            Ni 88  -- Ni 102                 0.05        2.68035
            Ni 129 -- Ni 131                 0.07        2.68186
            Ni 74  -- Ni 75                  0.02        2.68291
             Al 17 -- Al 19                  0.22        2.68357
            Ni 80  -- Ni 87                  0.04        2.68626
             Al 26 -- Al 27                  0.21        2.68665
             Al 20 -- Ni 135                 0.09        2.68976
             Al 29 -- Al 48                  0.25        2.69146
             Al 26 -- Al 41                  0.21        2.69186
             Al 35 -- Al 49                  0.23        2.69278
             Al 36 -- Al 51                  0.22        2.69299
             Al 22 -- Al 26                  0.19        2.69360
             Al 17 -- Al 33                  0.21        2.69413
             Al 57 -- Ni 39                  0.13        2.69455
             Al 32 -- Al 36                  0.19        2.69721
            Ni 97  -- Ni 102                 0.02        2.69883
             Al 30 -- Ni 99                  0.14        2.69964
             Al 36 -- Al 57                  0.21        2.69973
             Al 36 -- Al 38                  0.30        2.70252
             Al 5  -- Al 6                   0.21        2.70339
             Al 34 -- Al 45                  0.23        2.70343
            Ni 133 -- Ni 135                 0.05        2.70509
             Al 9  -- Ni 160                 0.10        2.70520
             Al 29 -- Al 46                  0.20        2.70735
             Al 18 -- Al 23                  0.26        2.70848
             Al 16 -- Al 62                  0.21        2.70960
             Al 59 -- Al 60                  0.20        2.71073
            Ni 120 -- Ni 128                 0.03        2.71237
             Al 35 -- Al 52                  0.20        2.71573
             Al 26 -- Al 46                  0.19        2.71812
             Al 37 -- Al 39                  0.19        2.72169
             Al 22 -- Al 42                  0.22        2.72252
             Al 5  -- Al 8                   0.21        2.72424
             Al 45 -- Al 57                  0.18        2.72497
             Al 47 -- Al 60                  0.21        2.72658
             Al 52 -- Al 62                  0.20        2.72950
             Al 9  -- Al 13                  0.20        2.73036
             Al 15 -- Al 16                  0.16        2.73149
             Al 54 -- Al 55                  0.21        2.73182
             Al 25 -- Ni 170                 0.13        2.73259
            Ni 39  -- Ni 42                  0.03        2.73385
             Al 41 -- Al 42                  0.25        2.73505
             Al 53 -- Ni 172                 0.10        2.73534
            Ni 75  -- Ni 77                  0.05        2.73543
             Al 28 -- Al 29                  0.17        2.74340
             Al 19 -- Al 24                  0.21        2.74808
             Al 36 -- Al 37                  0.21        2.75148
             Al 53 -- Al 56                  0.19        2.75443
             Al 38 -- Al 45                  0.17        2.75551
             Al 28 -- Al 48                  0.18        2.75635
             Al 35 -- Al 63                  0.18        2.75873
             Al 13 -- Al 58                  0.20        2.75891
             Al 64 -- Ni 56                  0.11        2.76178
             Al 48 -- Ni 99                  0.11        2.76323
             Al 22 -- Al 43                  0.18        2.76350
             Al 23 -- Al 24                  0.19        2.76373
             Al 8  -- Al 56                  0.17        2.76399
             Al 11 -- Al 12                  0.17        2.76465
             Al 18 -- Al 24                  0.21        2.76566
             Al 11 -- Al 15                  0.18        2.76845
             Al 34 -- Al 37                  0.17        2.77213
             Al 34 -- Al 38                  0.16        2.77691
             Al 11 -- Al 31                  0.17        2.77743
             Al 40 -- Al 43                  0.19        2.77857
             Al 6  -- Al 53                  0.16        2.78023
             Al 6  -- Al 56                  0.18        2.78208
             Al 51 -- Al 57                  0.18        2.78541
             Al 38 -- Al 39                  0.18        2.78832
             Al 40 -- Al 42                  0.20        2.78980
             Al 40 -- Al 41                  0.18        2.79044
             Al 42 -- Al 43                  0.18        2.79081
             Al 20 -- Al 38                  0.14        2.79136
             Al 14 -- Al 16                  0.17        2.79196
             Al 48 -- Al 50                  0.17        2.79498
             Al 46 -- Al 50                  0.16        2.79708
             Al 37 -- Al 38                  0.22        2.80611
             Al 2  -- Ni 186                 0.07        2.80697
             Al 49 -- Ni 88                  0.11        2.80709
             Al 36 -- Al 39                  0.13        2.81355
             Al 29 -- Al 50                  0.14        2.81709
             Al 33 -- Al 44                  0.14        2.81761
             Al 28 -- Al 30                  0.15        2.82792
             Al 62 -- Al 63                  0.15        2.82980
             Al 36 -- Al 45                  0.14        2.83301
             Al 17 -- Al 23                  0.15        2.85125
             Al 17 -- Al 44                  0.13        2.85294
             Al 6  -- Al 8                   0.11        2.91063
             Al 52 -- Al 63                  0.11        2.92711
             Al 19 -- Al 23                  0.09        2.99063
======================================================================
 

Writing analysis data to castep.castep_bin

Writing model to castep.check
 
 A BibTeX formatted list of references used in this run has been written to 
 castep.bib
 
Initialisation time =     14.99 s
Calculation time    =  28898.93 s
Finalisation time   =      3.31 s
Total time          =  28917.23 s
Peak Memory Use     = 8380340 kB
  
Overall parallel efficiency rating: Good (78%)                                  
  
Data was distributed by:-
G-vector (48-way); efficiency rating: Good (79%)                                
