 +-------------------------------------------------+
 |                                                 |
 |      CCC   AA    SSS  TTTTT  EEEEE  PPPP        |
 |     C     A  A  S       T    E      P   P       |
 |     C     AAAA   SS     T    EEE    PPPP        |
 |     C     A  A     S    T    E      P           |
 |      CCC  A  A  SSS     T    EEEEE  P           |
 |                                                 |
 +-------------------------------------------------+
 |                                                 |
 | Welcome to Academic Release CASTEP version 20.11|          
 | Ab Initio Total Energy Program                  |
 |                                                 |
 | Authors:                                        |
 | M. Segall, M. Probert, C. Pickard, P. Hasnip,   |
 | S. Clark, K. Refson, J. R. Yates, M. Payne      |
 |                                                 |
 | Contributors:                                   |
 | P. Lindan, P. Haynes, J. White, V. Milman,      |
 | N. Govind, M. Gibson, P. Tulip, V. Cocula,      |
 | B. Montanari, D. Quigley, M. Glover,            |
 | L. Bernasconi, A. Perlov, M. Plummer,           |
 | E. McNellis, J. Meyer, J. Gale, D. Jochym       |
 | J. Aarons, B. Walker, R. Gillen, D. Jones       |
 | T. Green, I. J. Bush, C. J. Armstrong,          |
 | E. J. Higgins, E. L. Brown, M. S. McFly,        |
 | J. Wilkins, B-C. Shih, P. J. P. Byrne,          |
 | R. J. Maurer, J. C. Womack, J. Dziedzic,        |
 | J. R. Kermode, A. Bartok-Partay                 |
 |                                                 |
 | Copyright (c) 2000 - 2020                       |
 |                                                 |
 |     Distributed under license from Cambridge    |
 |     Enterprise for academic use only.           |
 |                                                 |
 | Please cite                                     |
 |                                                 |
 |     "First principles methods using CASTEP"     |
 |                                                 |
 |         Zeitschrift fuer Kristallographie       |
 |           220(5-6) pp. 567-570 (2005)           |
 |                                                 |
 | S. J. Clark, M. D. Segall, C. J. Pickard,       |
 | P. J. Hasnip, M. J. Probert, K. Refson,         |
 | M. C. Payne                                     |
 |                                                 |
 |       in all publications arising from          |
 |              your use of CASTEP                 |
 |                                                 |
 +-------------------------------------------------+
 |                                                 |
 |              http://www.castep.org              |
 |                                                 |
 +-------------------------------------------------+
 
 
 
 Compiled for linux_x86_64_ifort on Wed, 25 Aug 2021 18:50:38 +0100
 from code version e772bf432+  HEAD  Sat Apr 3 17:41:32 2021 +0100
 Compiler: Intel Fortran 19.0.5.281; Optimisation: fast
 MATHLIBS: Intel MKL(2019.0.5) (LAPACK version 3.7.0)
 FFT Lib : mkl
 Fundamental constants values: CODATA 2014
 
 Run started: Wed, 08 Mar 2023 23:51:27 +0000
 
 Atomic calculation performed for Al: 1s2 2s2 2p6 3s2 3p1
 
 Converged in 52 iterations to an ae energy of -6606.982 eV
 
   ============================================================                
   | Pseudopotential Report - Date of generation  8-03-2023   |                
   ------------------------------------------------------------                
   | Element: Al Ionic charge:  3.00 Level of theory: RPBE    |                
   | Atomic Solver: Koelling-Harmon                           |                
   |                                                          |                
   |               Reference Electronic Structure             |                
   |         Orbital         Occupation         Energy        |                
   |            3s              2.000           -0.284        |                
   |            3p              1.000           -0.100        |                
   |                                                          |                
   |                 Pseudopotential Definition               |                
   |        Beta     l      e      Rc     scheme   norm       |                
   |          1      0   -0.284   2.192     qc      0         |                
   |          2      0    0.250   2.192     qc      0         |                
   |          3      1   -0.100   2.192     qc      0         |                
   |          4      1    0.250   2.192     qc      0         |                
   |          5      2    0.000   2.000     qc      0         |                
   |          6      2    0.250   2.000     qc      0         |                
   |         loc     3    0.000   2.192     pn      0         |                
   |                                                          |                
   | Augmentation charge Rinner = 1.398                       |                
   | Partial core correction Rc = 1.398                       |                
   ------------------------------------------------------------                
   | "3|2.2|2.2|1.4|4|5|5|30:31:32U2U2"                       |                
   ------------------------------------------------------------                
   |      Author: Chris J. Pickard, Cambridge University      |                
   ============================================================                
 
 Atomic calculation performed for Ni: 1s2 2s2 2p6 3s2 3p6 3d8 4s2
 
 Converged in 109 iterations to an ae energy of -41381.414 eV
 
   ============================================================                
   | Pseudopotential Report - Date of generation  8-03-2023   |                
   ------------------------------------------------------------                
   | Element: Ni Ionic charge: 10.00 Level of theory: RPBE    |                
   | Atomic Solver: Koelling-Harmon                           |                
   |                                                          |                
   |               Reference Electronic Structure             |                
   |         Orbital         Occupation         Energy        |                
   |            3d              8.000           -0.324        |                
   |            4s              2.000           -0.204        |                
   |                                                          |                
   |                 Pseudopotential Definition               |                
   |        Beta     l      e      Rc     scheme   norm       |                
   |          1      0   -0.204   2.401     qc      0         |                
   |          2      0    0.250   2.401     qc      0         |                
   |          3      1    0.000   2.401     qc      0         |                
   |          4      1    0.250   2.401     qc      0         |                
   |          5      2   -0.324   1.999     qc      0         |                
   |          6      2    0.250   1.999     qc      0         |                
   |         loc     3    0.000   2.401     pn      0         |                
   |                                                          |                
   | Augmentation charge Rinner = 1.001                       |                
   | Partial core correction Rc = 1.001                       |                
   ------------------------------------------------------------                
   | "3|2.4|2.4|1.0|8|9|10|40:41:32U2U2(qc=5.5)"              |                
   ------------------------------------------------------------                
   |      Author: Chris J. Pickard, Cambridge University      |                
   ============================================================                
 
 Pseudo atomic calculation performed for Al 3s2 3p1
 
 Converged in 13 iterations to a total energy of -107.6592 eV
 
 Pseudo atomic calculation performed for Ni 3d8 4s2
 
 Converged in 41 iterations to a total energy of -1369.7891 eV
 Calculation parallelised over 48 processes.
 Data is distributed by G-vector(48-way)

 ************************************ Title ************************************
 

 ***************************** General Parameters ******************************
  
 output verbosity                               : normal  (1)
 write checkpoint data to                       : castep.check
 type of calculation                            : geometry optimization
 stress calculation                             : off
 density difference calculation                 : off
 electron localisation func (ELF) calculation   : off
 Hirshfeld analysis                             : off
 molecular orbital projected DOS                : off
 deltaSCF calculation                           : off
 unlimited duration calculation
 timing information                             : on
 memory usage estimate                          : on
 write extra output files                       : on
 write final potential to formatted file        : off
 write final density to formatted file          : off
 write BibTeX reference list                    : on
 write OTFG pseudopotential files               : on
 write electrostatic potential file             : on
 write bands file                               : on
 checkpoint writing                             : both castep_bin and check files
  
 output         length unit                     : A
 output           mass unit                     : amu
 output           time unit                     : ps
 output         charge unit                     : e
 output           spin unit                     : hbar/2
 output         energy unit                     : eV
 output          force unit                     : eV/A
 output       velocity unit                     : A/ps
 output       pressure unit                     : GPa
 output     inv_length unit                     : 1/A
 output      frequency unit                     : cm-1
 output force constant unit                     : eV/A**2
 output         volume unit                     : A**3
 output   IR intensity unit                     : (D/A)**2/amu
 output         dipole unit                     : D
 output         efield unit                     : eV/A/e
 output        entropy unit                     : J/mol/K
 output    efield chi2 unit                     : pm/V
  
 wavefunctions paging                           : none
 random number generator seed                   : randomised (235127286)
 data distribution                              : optimal for this architecture
 optimization strategy                          : maximize speed(+++)

 *********************** Exchange-Correlation Parameters ***********************
  
 using functional                               : revised Perdew Burke Ernzerhof
 relativistic treatment                         : Koelling-Harmon
 DFT+D: Semi-empirical dispersion correction    : off

 ************************* Pseudopotential Parameters **************************
  
 pseudopotential representation                 : reciprocal space
 <beta|phi> representation                      : reciprocal space
 spin-orbit coupling                            : off

 **************************** Basis Set Parameters *****************************
  
 plane wave basis set cut-off                   :   900.0000   eV
 size of standard grid                          :     1.7500
 size of   fine   gmax                          :    26.8966   1/A
 finite basis set correction                    : none

 **************************** Electronic Parameters ****************************
  
 number of  electrons                           :  2109.    
 net charge of system                           :  0.000    
 net spin   of system                           :  1.000    
 number of  up  spins                           :  1055.    
 number of down spins                           :  1054.    
 treating system as spin-polarized
 number of bands                                :       1167

 ********************* Electronic Minimization Parameters **********************
  
 Method: Treating system as metallic with density mixing treatment of electrons,
         and number of  SD  steps               :          1
         and number of  CG  steps               :          4
  
 total energy / atom convergence tol.           : 0.1000E-05   eV
 eigen-energy convergence tolerance             : 0.2185E-06   eV
 max force / atom convergence tol.              : ignored
 convergence tolerance window                   :          3   cycles
 max. number of SCF cycles                      :        200
 number of fixed-spin iterations                :         10
 smearing scheme                                : Gaussian
 smearing width                                 : 0.2000       eV
 Fermi energy convergence tolerance             : 0.2721E-13   eV
 periodic dipole correction                     : NONE
 periodically dump wavefunctions to             : castep.wvfn
 dump wavefunctions every                       :          1   SCF cycles

 ************************** Density Mixing Parameters **************************
  
 density-mixing scheme                          : Pulay
 max. length of mixing history                  :         20
 charge density mixing amplitude                : 0.8000    
   spin density mixing amplitude                :  2.000    
 cut-off energy for mixing                      :  900.0       eV

 *********************** Population Analysis Parameters ************************
  
 Population analysis with cutoff                :  3.000       A
 Population analysis output                     : summary and pdos components

 ********************** Geometry Optimization Parameters ***********************
  
 optimization method                            : LBFGS
 max. no. of LBFGS updates                      : unbounded
 variable cell method                           : fixed basis quality
 max. number of steps                           :         30
 estimated bulk modulus                         :  500.0       GPa
 estimated <frequency>                          :  1668.       cm-1
 geom line minimiser                            : on
 with line minimiser tolerance                  :     0.4000
  with spin fully able to relax for all steps
 total energy convergence tolerance             : 0.2000E-04   eV/atom
        max ionic |force| tolerance             : 0.5000E-01   eV/A
 max ionic |displacement| tolerance             : 0.1000E-02   A
   max |stress component| tolerance             : 0.1000       GPa
 convergence tolerance window                   :          2   steps
 backup results every                           :          5   steps
 write geom trajectory file                     : on

 *******************************************************************************
  
 
                           -------------------------------
                                      Unit Cell
                           -------------------------------
        Real Lattice(A)                      Reciprocal Lattice(1/A)
    14.4648280     0.0000000     0.0000000        0.434376773   0.000000000   0.000000000
     0.0000000    14.4648280     0.0000000        0.000000000   0.434376773   0.000000000
     0.0000000     0.0000000    14.4648280        0.000000000   0.000000000   0.434376773
 
                       Lattice parameters(A)       Cell Angles
                    a =     14.464828          alpha =   90.000000
                    b =     14.464828          beta  =   90.000000
                    c =     14.464828          gamma =   90.000000
 
                       Current cell volume =          3026.494030       A**3
                                   density =             4.285146   AMU/A**3
                                           =             7.115653     g/cm^3
 
                           -------------------------------
                                     Cell Contents
                           -------------------------------
                         Total number of ions in cell =  255
                      Total number of species in cell =    2
                        Max number of any one species =  192
 
            xxxxxxxxxxxxxxxxxxxxxxxxxxxxxxxxxxxxxxxxxxxxxxxxxxxxxxxxxxxx
            x  Element    Atom        Fractional coordinates of atoms  x
            x            Number           u          v          w      x
            x----------------------------------------------------------x
            x  Al           1         0.570155   0.307954   0.813420   x 
            x  Al           2         0.818143   0.308859   0.812792   x 
            x  Al           3         0.568957   0.558664   0.814334   x 
            x  Al           4         0.817600   0.558335   0.813249   x 
            x  Al           5         0.573908   0.808662   0.809681   x 
            x  Al           6         0.818451   0.807822   0.812449   x 
            x  Al           7         0.571101   0.058593   0.813107   x 
            x  Al           8         0.819190   0.058779   0.812127   x 
            x  Al           9         0.569432   0.306730   0.063299   x 
            x  Al          10         0.818578   0.308126   0.062639   x 
            x  Al          11         0.573567   0.554001   0.062762   x 
            x  Al          12         0.817549   0.558324   0.062584   x 
            x  Al          13         0.576380   0.813454   0.063076   x 
            x  Al          14         0.818942   0.808616   0.062406   x 
            x  Al          15         0.573193   0.057770   0.059281   x 
            x  Al          16         0.819589   0.058534   0.062283   x 
            x  Al          17         0.576467   0.302547   0.312564   x 
            x  Al          18         0.818852   0.308569   0.312847   x 
            x  Al          19         0.574796   0.563939   0.311363   x 
            x  Al          20         0.817872   0.558896   0.312622   x 
            x  Al          21         0.574763   0.808794   0.315618   x 
            x  Al          22         0.819369   0.808400   0.313315   x 
            x  Al          23         0.576839   0.058143   0.318815   x 
            x  Al          24         0.820237   0.057874   0.313519   x 
            x  Al          25         0.572371   0.308730   0.562876   x 
            x  Al          26         0.818517   0.309369   0.563702   x 
            x  Al          27         0.569742   0.558420   0.563507   x 
            x  Al          28         0.817994   0.558380   0.563431   x 
            x  Al          29         0.570144   0.808015   0.563633   x 
            x  Al          30         0.819399   0.807661   0.563727   x 
            x  Al          31         0.571921   0.058087   0.562373   x 
            x  Al          32         0.820058   0.058463   0.564129   x 
            x  Al          33         0.328740   0.182882   0.683418   x 
            x  Al          34         0.056064   0.057367   0.557768   x 
            x  Al          35         0.192440   0.189892   0.555185   x 
            x  Al          36         0.321878   0.935120   0.688816   x 
            x  Al          37         0.192806   0.929527   0.554380   x 
            x  Al          38         0.318468   0.687198   0.690532   x 
            x  Al          39         0.074804   0.687519   0.678591   x 
            x  Al          40         0.197886   0.188988   0.322426   x 
            x  Al          41         0.066648   0.805915   0.315287   x 
            x  Al          42         0.325139   0.685499   0.438008   x 
            x  Al          43         0.192521   0.667407   0.313585   x 
            x  Al          44         0.440279   0.432750   0.320357   x 
            x  Al          45         0.328024   0.549009   0.561096   x 
            x  Al          46         0.193063   0.432821   0.311315   x 
            x  Al          47         0.061308   0.434693   0.438646   x 
            x  Al          48         0.317606   0.061466   0.062250   x 
            x  Al          49         0.439711   0.058136   0.195432   x 
            x  Al          50         0.186454   0.054654   0.934817   x 
            x  Al          51         0.067857   0.184826   0.191219   x 
            x  Al          52         0.433102   0.813784   0.189959   x 
            x  Al          53         0.071068   0.945346   0.191592   x 
            x  Al          54         0.201154   0.808197   0.181950   x 
            x  Al          55         0.431780   0.675096   0.062454   x 
            x  Al          56         0.322448   0.430424   0.180484   x 
            x  Al          57         0.183710   0.424919   0.060292   x 
            x  Al          58         0.187160   0.186047   0.806497   x 
            x  Al          59         0.433680   0.814950   0.935680   x 
            x  Al          60         0.192300   0.810956   0.937189   x 
            x  Al          61         0.191365   0.426221   0.804358   x 
            x  Al          62         0.192601   0.426369   0.568976   x 
            x  Al          63         0.187742   0.565404   0.933169   x 
            x  Ni           1         0.567727   0.431637   0.937545   x 
            x  Ni           2         0.693822   0.307868   0.938013   x 
            x  Ni           3         0.693251   0.433463   0.813372   x 
            x  Ni           4         0.817656   0.433513   0.938007   x 
            x  Ni           5         0.942559   0.308940   0.937597   x 
            x  Ni           6         0.942460   0.433916   0.812898   x 
            x  Ni           7         0.563485   0.686728   0.941345   x 
            x  Ni           8         0.692548   0.558756   0.937941   x 
            x  Ni           9         0.692624   0.682722   0.813821   x 
            x  Ni          10         0.818296   0.683174   0.937721   x 
            x  Ni          11         0.942301   0.558447   0.937797   x 
            x  Ni          12         0.942744   0.682997   0.812800   x 
            x  Ni          13         0.567970   0.932198   0.935894   x 
            x  Ni          14         0.694644   0.808563   0.936881   x 
            x  Ni          15         0.695045   0.933900   0.811858   x 
            x  Ni          16         0.819412   0.933433   0.936863   x 
            x  Ni          17         0.942805   0.808021   0.937334   x 
            x  Ni          18         0.943267   0.933020   0.812382   x 
            x  Ni          19         0.568232   0.183328   0.937563   x 
            x  Ni          20         0.695029   0.058272   0.936467   x 
            x  Ni          21         0.693944   0.183610   0.812459   x 
            x  Ni          22         0.818832   0.183564   0.937278   x 
            x  Ni          23         0.943192   0.058492   0.937174   x 
            x  Ni          24         0.943142   0.184023   0.812597   x 
            x  Ni          25         0.566514   0.431957   0.191464   x 
            x  Ni          26         0.694304   0.306818   0.187184   x 
            x  Ni          27         0.693313   0.431684   0.063615   x 
            x  Ni          28         0.818216   0.433409   0.187620   x 
            x  Ni          29         0.942599   0.308780   0.187881   x 
            x  Ni          30         0.942202   0.433793   0.062744   x 
            x  Ni          31         0.563884   0.687262   0.183541   x 
            x  Ni          32         0.693714   0.559250   0.187160   x 
            x  Ni          33         0.693580   0.683787   0.062536   x 
            x  Ni          34         0.818704   0.683870   0.187298   x 
            x  Ni          35         0.942127   0.558677   0.187770   x 
            x  Ni          36         0.942644   0.683322   0.062581   x 
            x  Ni          37         0.567500   0.935044   0.190061   x 
            x  Ni          38         0.694730   0.809614   0.188157   x 
            x  Ni          39         0.696285   0.934785   0.062417   x 
            x  Ni          40         0.819949   0.933516   0.187969   x 
            x  Ni          41         0.943107   0.808229   0.187803   x 
            x  Ni          42         0.943155   0.933199   0.062399   x 
            x  Ni          43         0.568393   0.179084   0.188246   x 
            x  Ni          44         0.694957   0.057573   0.188066   x 
            x  Ni          45         0.694613   0.182767   0.062530   x 
            x  Ni          46         0.819561   0.182842   0.187431   x 
            x  Ni          47         0.943700   0.058274   0.187873   x 
            x  Ni          48         0.943099   0.183590   0.062453   x 
            x  Ni          49         0.570468   0.433607   0.434665   x 
            x  Ni          50         0.695958   0.308375   0.438641   x 
            x  Ni          51         0.694501   0.433446   0.312200   x 
            x  Ni          52         0.818281   0.434128   0.438131   x 
            x  Ni          53         0.942829   0.309287   0.438198   x 
            x  Ni          54         0.942346   0.434054   0.312964   x 
            x  Ni          55         0.568277   0.684377   0.439192   x 
            x  Ni          56         0.694067   0.559257   0.438227   x 
            x  Ni          57         0.694834   0.684814   0.312088   x 
            x  Ni          58         0.818757   0.683251   0.438383   x 
            x  Ni          59         0.942525   0.558669   0.438000   x 
            x  Ni          60         0.942547   0.683327   0.313006   x 
            x  Ni          61         0.570276   0.932634   0.439859   x 
            x  Ni          62         0.695593   0.808085   0.439752   x 
            x  Ni          63         0.696678   0.933233   0.314147   x 
            x  Ni          64         0.820232   0.932814   0.439186   x 
            x  Ni          65         0.943435   0.807834   0.438409   x 
            x  Ni          66         0.943687   0.933014   0.313373   x 
            x  Ni          67         0.571293   0.182829   0.439439   x 
            x  Ni          68         0.697493   0.057919   0.440353   x 
            x  Ni          69         0.697749   0.182018   0.313434   x 
            x  Ni          70         0.820123   0.183643   0.439155   x 
            x  Ni          71         0.943807   0.058301   0.438592   x 
            x  Ni          72         0.942889   0.183644   0.313179   x 
            x  Ni          73         0.567650   0.433845   0.689270   x 
            x  Ni          74         0.693378   0.308807   0.688367   x 
            x  Ni          75         0.692899   0.434200   0.563002   x 
            x  Ni          76         0.817840   0.433904   0.688185   x 
            x  Ni          77         0.943047   0.309308   0.687974   x 
            x  Ni          78         0.942781   0.434102   0.563082   x 
            x  Ni          79         0.567343   0.683270   0.687842   x 
            x  Ni          80         0.692800   0.558381   0.688681   x 
            x  Ni          81         0.693858   0.682897   0.563615   x 
            x  Ni          82         0.818181   0.682647   0.688468   x 
            x  Ni          83         0.942716   0.558436   0.688132   x 
            x  Ni          84         0.943005   0.682901   0.563290   x 
            x  Ni          85         0.568557   0.933869   0.686980   x 
            x  Ni          86         0.694789   0.807919   0.687321   x 
            x  Ni          87         0.695375   0.932937   0.563925   x 
            x  Ni          88         0.819453   0.933270   0.687946   x 
            x  Ni          89         0.943136   0.807731   0.688087   x 
            x  Ni          90         0.943936   0.932934   0.563441   x 
            x  Ni          91         0.568151   0.182803   0.687498   x 
            x  Ni          92         0.694354   0.058636   0.687757   x 
            x  Ni          93         0.695225   0.183657   0.564035   x 
            x  Ni          94         0.819079   0.184035   0.688175   x 
            x  Ni          95         0.943824   0.058551   0.687950   x 
            x  Ni          96         0.943665   0.184142   0.563384   x 
            x  Ni          97         0.069894   0.430619   0.932047   x 
            x  Ni          98         0.190663   0.305570   0.933371   x 
            x  Ni          99         0.064026   0.305214   0.807699   x 
            x  Ni         100         0.311477   0.432005   0.935412   x 
            x  Ni         101         0.442536   0.306603   0.937932   x 
            x  Ni         102         0.316704   0.557161   0.811458   x 
            x  Ni         103         0.319842   0.304896   0.810850   x 
            x  Ni         104         0.065397   0.560780   0.805166   x 
            x  Ni         105         0.065284   0.687577   0.935898   x 
            x  Ni         106         0.314851   0.683891   0.934014   x 
            x  Ni         107         0.441911   0.557588   0.937105   x 
            x  Ni         108         0.443727   0.685105   0.814563   x 
            x  Ni         109         0.190647   0.685894   0.809600   x 
            x  Ni         110         0.066535   0.934089   0.935437   x 
            x  Ni         111         0.316853   0.811463   0.811438   x 
            x  Ni         112         0.190688   0.935968   0.807503   x 
            x  Ni         113         0.314074   0.938291   0.935214   x 
            x  Ni         114         0.318274   0.810058   0.060522   x 
            x  Ni         115         0.444335   0.935232   0.812126   x 
            x  Ni         116         0.065298   0.180476   0.933381   x 
            x  Ni         117         0.316000   0.061786   0.809402   x 
            x  Ni         118         0.066948   0.057850   0.805653   x 
            x  Ni         119         0.314482   0.180338   0.935297   x 
            x  Ni         120         0.442812   0.057705   0.937855   x 
            x  Ni         121         0.444784   0.182658   0.813075   x 
            x  Ni         122         0.193286   0.060760   0.678119   x 
            x  Ni         123         0.064960   0.430346   0.188639   x 
            x  Ni         124         0.192259   0.307288   0.188932   x 
            x  Ni         125         0.062561   0.303418   0.061244   x 
            x  Ni         126         0.445872   0.307169   0.189084   x 
            x  Ni         127         0.443626   0.432717   0.060647   x 
            x  Ni         128         0.318571   0.306141   0.060614   x 
            x  Ni         129         0.070884   0.683767   0.190059   x 
            x  Ni         130         0.191120   0.552044   0.184167   x 
            x  Ni         131         0.191397   0.682889   0.061240   x 
            x  Ni         132         0.065611   0.558090   0.060715   x 
            x  Ni         133         0.315311   0.678411   0.189085   x 
            x  Ni         134         0.444130   0.556176   0.187438   x 
            x  Ni         135         0.312498   0.552996   0.058655   x 
            x  Ni         136         0.067108   0.060467   0.063015   x 
            x  Ni         137         0.070327   0.813869   0.066209   x 
            x  Ni         138         0.314930   0.937837   0.189912   x 
            x  Ni         139         0.443429   0.936195   0.064202   x 
            x  Ni         140         0.191738   0.937518   0.063106   x 
            x  Ni         141         0.194927   0.064519   0.190974   x 
            x  Ni         142         0.190466   0.184166   0.060751   x 
            x  Ni         143         0.317408   0.185274   0.190290   x 
            x  Ni         144         0.443253   0.180674   0.064004   x 
            x  Ni         145         0.064083   0.309106   0.314773   x 
            x  Ni         146         0.448278   0.308085   0.436676   x 
            x  Ni         147         0.320649   0.313410   0.315204   x 
            x  Ni         148         0.065656   0.679013   0.438589   x 
            x  Ni         149         0.062919   0.555664   0.314360   x 
            x  Ni         150         0.196256   0.548381   0.442240   x 
            x  Ni         151         0.447046   0.558656   0.436542   x 
            x  Ni         152         0.444483   0.683807   0.310283   x 
            x  Ni         153         0.320208   0.552011   0.315676   x 
            x  Ni         154         0.064884   0.931845   0.436071   x 
            x  Ni         155         0.192791   0.802575   0.433900   x 
            x  Ni         156         0.191459   0.933210   0.314836   x 
            x  Ni         157         0.318175   0.931732   0.437796   x 
            x  Ni         158         0.445806   0.809006   0.435834   x 
            x  Ni         159         0.444130   0.933459   0.314733   x 
            x  Ni         160         0.315640   0.805693   0.313225   x 
            x  Ni         161         0.064711   0.185685   0.436788   x 
            x  Ni         162         0.191122   0.059398   0.440862   x 
            x  Ni         163         0.068302   0.062327   0.315729   x 
            x  Ni         164         0.320189   0.185915   0.440183   x 
            x  Ni         165         0.446145   0.057865   0.436645   x 
            x  Ni         166         0.444555   0.183708   0.314801   x 
            x  Ni         167         0.317782   0.060061   0.317542   x 
            x  Ni         168         0.065990   0.431237   0.684018   x 
            x  Ni         169         0.194500   0.302885   0.684329   x 
            x  Ni         170         0.193380   0.317134   0.438192   x 
            x  Ni         171         0.062364   0.308175   0.558821   x 
            x  Ni         172         0.320354   0.431527   0.687199   x 
            x  Ni         173         0.447409   0.308425   0.687762   x 
            x  Ni         174         0.447522   0.431680   0.559947   x 
            x  Ni         175         0.323235   0.311770   0.560109   x 
            x  Ni         176         0.067707   0.810685   0.807718   x 
            x  Ni         177         0.194764   0.557659   0.685349   x 
            x  Ni         178         0.199522   0.679776   0.559370   x 
            x  Ni         179         0.064717   0.557416   0.562304   x 
            x  Ni         180         0.442091   0.432062   0.814705   x 
            x  Ni         181         0.442882   0.682965   0.564137   x 
            x  Ni         182         0.443811   0.558715   0.690338   x 
            x  Ni         183         0.068439   0.932130   0.680021   x 
            x  Ni         184         0.195402   0.810938   0.683657   x 
            x  Ni         185         0.066534   0.807243   0.557549   x 
            x  Ni         186         0.444381   0.809369   0.689272   x 
            x  Ni         187         0.444638   0.933694   0.561982   x 
            x  Ni         188         0.321225   0.809223   0.562063   x 
            x  Ni         189         0.066105   0.182407   0.680207   x 
            x  Ni         190         0.320451   0.057896   0.560651   x 
            x  Ni         191         0.446126   0.057796   0.687100   x 
            x  Ni         192         0.446524   0.183635   0.560596   x 
            xxxxxxxxxxxxxxxxxxxxxxxxxxxxxxxxxxxxxxxxxxxxxxxxxxxxxxxxxxxx
 
 
                         No user defined ionic velocities
 
                           -------------------------------
                                   Details of Species
                           -------------------------------
 
                               Mass of species in AMU
                                    Al   26.9815400
                                    Ni   58.6934000
 
                          Electric Quadrupole Moment (Barn)
                                    Al    0.1466000 Isotope 27
                                    Ni    0.1620000 Isotope 61
 
                          Files used for pseudopotentials:
                                    Al 3|2.2|2.2|1.4|4|5|5|30:31:32U2U2
                                    Ni 3|2.4|2.4|1.0|8|9|10|40:41:32U2U2(qc=5.5)
 
                           -------------------------------
                              k-Points For BZ Sampling
                           -------------------------------
                       MP grid size for SCF calculation is  1  1  1
                            with an offset of   0.000  0.000  0.000
                       Number of kpoints used =             1
 
                           -------------------------------
                               Symmetry and Constraints
                           -------------------------------
 
                      Maximum deviation from symmetry =  0.00000         ANG
 
                      Number of symmetry operations   =           1
                      Number of ionic constraints     =           3
                      Point group of crystal =     1: C1, 1, 1
                      Space group of crystal =     1: P1, P 1
 
             Set iprint > 1 for details on symmetry rotations/translations
 
                         Centre of mass is constrained
             Set iprint > 1 for details of linear ionic constraints
 
                         Number of cell constraints= 6
                         Cell constraints are:  0 0 0 0 0 0
 
                         External pressure/stress (GPa)
                          0.00000   0.00000   0.00000
                                    0.00000   0.00000
                                              0.00000
  
+---------------- MEMORY AND SCRATCH DISK ESTIMATES PER PROCESS --------------+
|                                                     Memory          Disk    |
| Baseline code, static data and system overhead      622.0 MB         0.0 MB |
| BLAS internal memory storage                          0.0 MB         0.0 MB |
| Model and support data                              741.5 MB         0.0 MB |
| Electronic energy minimisation requirements         236.0 MB         0.0 MB |
| Force calculation requirements                        7.9 MB         0.0 MB |
|                                               ----------------------------- |
| Approx. total storage required per process         1599.5 MB         0.0 MB |
|                                                                             |
| Requirements will fluctuate during execution and may exceed these estimates |
+-----------------------------------------------------------------------------+
Calculating total energy with cut-off of  900.000 eV.
------------------------------------------------------------------------ <-- SCF
SCF loop      Energy           Fermi           Energy gain       Timer   <-- SCF
                               energy          per atom          (sec)   <-- SCF
------------------------------------------------------------------------ <-- SCF
Initial  -2.19106985E+005  0.00000000E+000                        20.60  <-- SCF
      1  -2.63670204E+005  7.14844317E+000   1.74757724E+002     106.11  <-- SCF
      2  -2.70646785E+005  3.64602120E+000   2.73591376E+001     192.20  <-- SCF
      3  -2.71369162E+005  3.53823274E+000   2.83285136E+000     275.73  <-- SCF
      4  -2.71426005E+005  3.65387107E+000   2.22915615E-001     356.50  <-- SCF
      5  -2.71708019E+005  6.61537311E+000   1.10593634E+000     456.43  <-- SCF
      6  -2.71510244E+005  5.54378476E+000  -7.75587628E-001     569.61  <-- SCF
      7  -2.71401487E+005  4.53079759E+000  -4.26498313E-001     671.21  <-- SCF
      8  -2.71386101E+005  4.41241752E+000  -6.03362225E-002     773.31  <-- SCF
      9  -2.71398409E+005  4.49123361E+000   4.82649793E-002     871.19  <-- SCF
     10  -2.71393907E+005  4.43034520E+000  -1.76539688E-002     973.16  <-- SCF
     11  -2.72215736E+005  6.16629460E+000   3.22285900E+000    1073.69  <-- SCF
     12  -2.72227789E+005  6.11612835E+000   4.72675960E-002    1157.34  <-- SCF
     13  -2.71476361E+005  4.77716535E+000  -2.94677936E+000    1281.57  <-- SCF
     14  -2.71541955E+005  4.79356154E+000   2.57231660E-001    1363.94  <-- SCF
     15  -2.71418072E+005  4.29775104E+000  -4.85815479E-001    1467.50  <-- SCF
     16  -2.71393776E+005  4.23835379E+000  -9.52753075E-002    1561.64  <-- SCF
     17  -2.71389902E+005  4.29922070E+000  -1.51926506E-002    1654.17  <-- SCF
     18  -2.71387928E+005  4.34305083E+000  -7.74349504E-003    1750.61  <-- SCF
     19  -2.71386356E+005  4.36617541E+000  -6.16215389E-003    1847.82  <-- SCF
     20  -2.71385471E+005  4.36349783E+000  -3.47027020E-003    1945.66  <-- SCF
     21  -2.71385273E+005  4.35624209E+000  -7.77966869E-004    2042.98  <-- SCF
     22  -2.71385167E+005  4.35106542E+000  -4.17448575E-004    2140.43  <-- SCF
     23  -2.71385067E+005  4.35392575E+000  -3.90879031E-004    2342.48  <-- SCF
     24  -2.71385010E+005  4.36268140E+000  -2.21700623E-004    2479.73  <-- SCF
     25  -2.71384971E+005  4.36616148E+000  -1.56062134E-004    2576.52  <-- SCF
     26  -2.71384879E+005  4.37074099E+000  -3.57536614E-004    2674.70  <-- SCF
     27  -2.71384813E+005  4.37329036E+000  -2.61947367E-004    2775.42  <-- SCF
     28  -2.71384804E+005  4.37433190E+000  -3.49631035E-005    2874.14  <-- SCF
     29  -2.71384792E+005  4.37652637E+000  -4.46702094E-005    2968.60  <-- SCF
     30  -2.71384789E+005  4.37741561E+000  -1.19080991E-005    3060.16  <-- SCF
     31  -2.71384789E+005  4.37821950E+000  -1.38356617E-006    3147.22  <-- SCF
     32  -2.71384788E+005  4.37895599E+000  -5.32436909E-006    3230.22  <-- SCF
     33  -2.71384788E+005  4.37900557E+000  -3.52338702E-007    3295.57  <-- SCF
     34  -2.71384788E+005  4.37903116E+000   6.26075814E-008    3361.03  <-- SCF
------------------------------------------------------------------------ <-- SCF
 
Integrated Spin Density     =    0.138395     hbar/2                        
Integrated |Spin Density|   =    0.225745     hbar/2                        
 
Final energy, E             =  -271380.2678669     eV
Final free energy (E-TS)    =  -271384.7875533     eV
(energies not corrected for finite basis set)
 
NB est. 0K energy (E-0.5TS)      =  -271382.5277101     eV
 

Writing analysis data to castep.castep_bin

Writing model to castep.check
 
+---------------- MEMORY AND SCRATCH DISK ESTIMATES PER PROCESS --------------+
|                                                     Memory          Disk    |
| Model and support data                              750.6 MB         0.0 MB |
| Electronic energy minimisation requirements         236.0 MB         0.0 MB |
| Geometry minimisation requirements                  309.4 MB         0.0 MB |
|                                               ----------------------------- |
| Approx. total storage required per process         1296.0 MB         0.0 MB |
|                                                                             |
| Requirements will fluctuate during execution and may exceed these estimates |
+-----------------------------------------------------------------------------+
 
 
 ************************************** Forces **************************************
 *                                                                                  *
 *                           Cartesian components (eV/A)                            *
 * -------------------------------------------------------------------------------- *
 *                         x                    y                    z              *
 *                                                                                  *
 * Al              1     -0.11404             -0.00783             -0.02772         *
 * Al              2      0.03650             -0.02741             -0.00340         *
 * Al              3     -0.11363             -0.02245              0.01358         *
 * Al              4      0.07271             -0.01065              0.00745         *
 * Al              5     -0.06831              0.00880             -0.13604         *
 * Al              6      0.11499              0.02545              0.00541         *
 * Al              7     -0.15739              0.03523             -0.03399         *
 * Al              8      0.06692              0.01581             -0.02370         *
 * Al              9     -0.09560              0.04144             -0.01071         *
 * Al             10      0.05742              0.01333             -0.03083         *
 * Al             11     -0.05319             -0.13075             -0.00915         *
 * Al             12      0.10512             -0.00355             -0.01915         *
 * Al             13      0.37068              0.09999             -0.02758         *
 * Al             14      0.04634             -0.03882             -0.03651         *
 * Al             15     -0.01096             -0.00999             -0.13312         *
 * Al             16      0.07567              0.02922             -0.02618         *
 * Al             17     -0.09623             -0.05458              0.04848         *
 * Al             18      0.02040              0.02340             -0.00262         *
 * Al             19     -0.07462              0.03260              0.01417         *
 * Al             20      0.06925             -0.00361             -0.01011         *
 * Al             21     -0.03899              0.01358              0.14238         *
 * Al             22      0.12199              0.00499              0.00656         *
 * Al             23      0.01762              0.01559              0.13480         *
 * Al             24      0.03200             -0.00479             -0.00299         *
 * Al             25     -0.09858             -0.06179             -0.01129         *
 * Al             26     -0.01567             -0.02276              0.00917         *
 * Al             27     -0.11524             -0.01321             -0.00099         *
 * Al             28      0.05832              0.02248              0.00429         *
 * Al             29     -0.15314              0.05666              0.01474         *
 * Al             30      0.04690              0.00011              0.00873         *
 * Al             31     -0.18572              0.01909              0.02155         *
 * Al             32      0.08330             -0.02052              0.02020         *
 * Al             33      0.14154              0.17833              0.05180         *
 * Al             34      0.38488              0.14721              0.32209         *
 * Al             35     -0.01878              0.00354             -0.11103         *
 * Al             36      0.15664              0.05007              0.22324         *
 * Al             37     -0.05020             -0.29404             -0.04747         *
 * Al             38      0.04634              0.02998              0.19140         *
 * Al             39     -0.52085             -0.27117              0.57068         *
 * Al             40      0.08696             -0.25751             -0.00899         *
 * Al             41     -0.71105             -0.01804              0.60060         *
 * Al             42      0.24098              0.09850             -0.08127         *
 * Al             43     -0.14763             -0.09161             -0.02661         *
 * Al             44      0.08052             -0.07667              0.35716         *
 * Al             45     -0.07093             -0.01872              0.01715         *
 * Al             46     -0.02210              0.06722             -0.01785         *
 * Al             47     -0.38761             -0.07567              0.01491         *
 * Al             48     -0.25397             -0.07277             -0.02687         *
 * Al             49      0.01733              0.17283              0.13110         *
 * Al             50     -0.29739              0.05033             -0.05059         *
 * Al             51     -0.48945             -0.11959             -0.67168         *
 * Al             52     -0.13995              0.07651              0.19782         *
 * Al             53     -0.56168             -0.04236             -0.65783         *
 * Al             54      0.10728             -0.05313             -0.17072         *
 * Al             55     -0.19131             -0.10642             -0.13367         *
 * Al             56      0.23354              0.03761              0.00283         *
 * Al             57     -0.21865             -0.11491             -0.14267         *
 * Al             58     -0.08194              0.02673              0.14483         *
 * Al             59     -0.00715              0.10860             -0.28857         *
 * Al             60     -0.18948             -0.03389             -0.14978         *
 * Al             61      0.01844              0.04466              0.02547         *
 * Al             62     -0.11949             -0.01120              0.18918         *
 * Al             63     -0.01993              0.11343             -0.00556         *
 * Ni              1     -0.00414              0.05222             -0.02654         *
 * Ni              2      0.00478             -0.00042              0.01238         *
 * Ni              3      0.01692              0.01513             -0.01022         *
 * Ni              4      0.10564             -0.01295             -0.02228         *
 * Ni              5      0.12830             -0.05391             -0.09279         *
 * Ni              6      0.10896              0.04985             -0.11592         *
 * Ni              7      0.11824              0.21626              0.29598         *
 * Ni              8      0.02786             -0.01517              0.01590         *
 * Ni              9      0.04061              0.00837             -0.02973         *
 * Ni             10     -0.00323              0.00227              0.02298         *
 * Ni             11      0.32816             -0.04218             -0.11205         *
 * Ni             12      0.19450              0.10202             -0.06109         *
 * Ni             13      0.10688             -0.15427              0.18232         *
 * Ni             14     -0.05065             -0.01679              0.00360         *
 * Ni             15     -0.08104             -0.02226              0.03177         *
 * Ni             16     -0.01549              0.00266             -0.01266         *
 * Ni             17      0.16241              0.12531              0.00624         *
 * Ni             18      0.14630             -0.02226             -0.15269         *
 * Ni             19     -0.00068             -0.01520              0.08478         *
 * Ni             20      0.05960              0.01235              0.00298         *
 * Ni             21     -0.00058             -0.00495             -0.01211         *
 * Ni             22      0.02808              0.00492             -0.02146         *
 * Ni             23      0.19500             -0.02870             -0.04824         *
 * Ni             24      0.02477             -0.14908             -0.16177         *
 * Ni             25      0.18750              0.04963              0.01742         *
 * Ni             26      0.04463              0.07309              0.01037         *
 * Ni             27      0.06729              0.00445             -0.03171         *
 * Ni             28      0.00046              0.02320             -0.06245         *
 * Ni             29      0.06435              0.06762              0.00704         *
 * Ni             30      0.24314             -0.07037             -0.09921         *
 * Ni             31      0.15056              0.22323             -0.30970         *
 * Ni             32     -0.03342             -0.04794              0.01977         *
 * Ni             33     -0.05181              0.03230              0.01179         *
 * Ni             34     -0.05338             -0.07655             -0.02121         *
 * Ni             35      0.20118             -0.02047             -0.01546         *
 * Ni             36      0.27465              0.12482              0.05152         *
 * Ni             37      0.20485             -0.05034             -0.07606         *
 * Ni             38      0.02636             -0.04428              0.00710         *
 * Ni             39     -0.06982              0.00036              0.02403         *
 * Ni             40     -0.00998             -0.04010             -0.02504         *
 * Ni             41      0.37733              0.02838             -0.03456         *
 * Ni             42      0.25070              0.07092             -0.05979         *
 * Ni             43      0.09139             -0.07649              0.02112         *
 * Ni             44      0.09478              0.01138             -0.00417         *
 * Ni             45     -0.02944             -0.01567              0.03505         *
 * Ni             46      0.00902              0.07395             -0.00243         *
 * Ni             47     -0.12205              0.15118              0.09922         *
 * Ni             48     -0.07432             -0.16077             -0.10291         *
 * Ni             49      0.03727             -0.05446             -0.07280         *
 * Ni             50     -0.03597              0.00831             -0.01160         *
 * Ni             51     -0.00408              0.00707             -0.02063         *
 * Ni             52      0.04500             -0.01133              0.00943         *
 * Ni             53     -0.20672             -0.25988             -0.08969         *
 * Ni             54     -0.24113             -0.08013             -0.23295         *
 * Ni             55      0.09649             -0.00983             -0.14878         *
 * Ni             56     -0.02363             -0.00537             -0.03771         *
 * Ni             57     -0.00525              0.01037              0.01570         *
 * Ni             58     -0.02652              0.01776             -0.02957         *
 * Ni             59     -0.16974              0.21681              0.01977         *
 * Ni             60      0.07872             -0.13220             -0.05301         *
 * Ni             61      0.10056              0.04715             -0.15067         *
 * Ni             62     -0.01035             -0.02334             -0.00768         *
 * Ni             63     -0.10561             -0.00142             -0.04628         *
 * Ni             64     -0.03237              0.01439              0.01491         *
 * Ni             65     -0.05263             -0.09063              0.09895         *
 * Ni             66      0.10393              0.04372             -0.04560         *
 * Ni             67      0.06998              0.02459             -0.13708         *
 * Ni             68     -0.01607              0.01193             -0.01527         *
 * Ni             69     -0.04042             -0.02069             -0.01884         *
 * Ni             70     -0.01318             -0.03178             -0.00598         *
 * Ni             71     -0.29976              0.04499             -0.52611         *
 * Ni             72     -0.11794             -0.03820              0.11965         *
 * Ni             73      0.07813             -0.00161              0.00574         *
 * Ni             74      0.03514              0.00332             -0.00161         *
 * Ni             75      0.12563             -0.01233              0.05094         *
 * Ni             76      0.01269             -0.02827              0.05014         *
 * Ni             77     -0.00280             -0.07382             -0.12718         *
 * Ni             78     -0.25751              0.00726              0.22134         *
 * Ni             79      0.12057             -0.03277              0.14104         *
 * Ni             80      0.02592              0.02760              0.00285         *
 * Ni             81     -0.00160              0.01675             -0.01349         *
 * Ni             82      0.00357             -0.01231             -0.00860         *
 * Ni             83      0.00912             -0.04285             -0.12224         *
 * Ni             84     -0.06887             -0.01806             -0.13380         *
 * Ni             85      0.13242             -0.01042              0.04742         *
 * Ni             86      0.00408             -0.00494             -0.01085         *
 * Ni             87     -0.00880             -0.01112             -0.00839         *
 * Ni             88     -0.04838              0.02285              0.02127         *
 * Ni             89      0.11504              0.12136             -0.15671         *
 * Ni             90     -0.28618             -0.36860             -0.13962         *
 * Ni             91      0.13701              0.05540              0.00438         *
 * Ni             92      0.01609             -0.03101              0.01430         *
 * Ni             93     -0.00546              0.00370             -0.03998         *
 * Ni             94      0.01337              0.01577              0.01690         *
 * Ni             95     -0.14597             -0.08972              0.09693         *
 * Ni             96     -0.44493              0.24806             -0.13786         *
 * Ni             97     -0.20394              0.34601              0.10463         *
 * Ni             98      0.02127             -0.17695              0.18011         *
 * Ni             99      0.07999              0.29816              0.19585         *
 * Ni            100      0.23771              0.07090              0.10202         *
 * Ni            101     -0.20827              0.01784             -0.04473         *
 * Ni            102      0.03097             -0.08481              0.16608         *
 * Ni            103      0.08260              0.00765              0.06364         *
 * Ni            104      0.15039             -0.25414              0.49698         *
 * Ni            105     -0.03570             -0.17872              0.04656         *
 * Ni            106      0.32406             -0.06484              0.02699         *
 * Ni            107     -0.19483             -0.14816              0.01138         *
 * Ni            108     -0.06487              0.00364              0.02539         *
 * Ni            109      0.01910              0.00330             -0.02215         *
 * Ni            110     -0.16873             -0.15988              0.14894         *
 * Ni            111     -0.22355             -0.05450             -0.05756         *
 * Ni            112      0.02221             -0.13402             -0.04577         *
 * Ni            113      0.25865              0.12986              0.06765         *
 * Ni            114      0.01110             -0.02957              0.02054         *
 * Ni            115     -0.05356              0.00791              0.13876         *
 * Ni            116      0.13228              0.23493              0.18662         *
 * Ni            117      0.06725              0.01399              0.12434         *
 * Ni            118      0.13690              0.00008              0.15734         *
 * Ni            119      0.15842              0.08065              0.02534         *
 * Ni            120     -0.02979              0.05842             -0.26266         *
 * Ni            121     -0.11991             -0.08053              0.24664         *
 * Ni            122     -0.16643             -0.04886              0.12918         *
 * Ni            123     -0.06300              0.15056             -0.15869         *
 * Ni            124      0.13271              0.05083             -0.02544         *
 * Ni            125      0.23830              0.31484             -0.09472         *
 * Ni            126     -0.25066             -0.14948              0.13944         *
 * Ni            127     -0.01522             -0.06644             -0.21687         *
 * Ni            128     -0.20518             -0.05903             -0.01541         *
 * Ni            129      0.00513              0.16968             -0.12816         *
 * Ni            130      0.08546             -0.09495              0.01231         *
 * Ni            131      0.03350             -0.00046              0.09048         *
 * Ni            132      0.15809             -0.02753              0.05272         *
 * Ni            133      0.11818             -0.14944             -0.11699         *
 * Ni            134     -0.08465              0.02355              0.30418         *
 * Ni            135     -0.21429              0.04657              0.06528         *
 * Ni            136     -0.16069              0.05085             -0.15451         *
 * Ni            137     -0.32138             -0.39851             -0.03673         *
 * Ni            138      0.12499              0.09576             -0.01789         *
 * Ni            139     -0.13788             -0.03148             -0.08883         *
 * Ni            140      0.12308             -0.02945             -0.00019         *
 * Ni            141     -0.13010              0.07870              0.19767         *
 * Ni            142      0.17656              0.01830             -0.11723         *
 * Ni            143      0.31996              0.19955             -0.20459         *
 * Ni            144     -0.10589             -0.08146              0.01410         *
 * Ni            145      0.25204              0.03357             -0.15029         *
 * Ni            146     -0.31373             -0.11849              0.13359         *
 * Ni            147      0.01185             -0.04101             -0.01398         *
 * Ni            148      0.29101              0.10860             -0.03576         *
 * Ni            149      0.33258             -0.02475             -0.28965         *
 * Ni            150     -0.09981              0.12211              0.23525         *
 * Ni            151     -0.17529              0.06212              0.01198         *
 * Ni            152      0.04368             -0.01816             -0.06657         *
 * Ni            153     -0.08539              0.13252             -0.33999         *
 * Ni            154      0.24809              0.21348              0.03832         *
 * Ni            155     -0.00506             -0.10675              0.07289         *
 * Ni            156     -0.05565             -0.12831             -0.29980         *
 * Ni            157      0.25382              0.05616             -0.25991         *
 * Ni            158     -0.16925              0.10431              0.24718         *
 * Ni            159     -0.15681             -0.03902              0.10313         *
 * Ni            160     -0.25476              0.17466              0.20438         *
 * Ni            161      0.03330              0.06096              0.10435         *
 * Ni            162     -0.00484             -0.15353              0.08081         *
 * Ni            163      0.04280              0.04830              0.24681         *
 * Ni            164      0.33659              0.05290             -0.11911         *
 * Ni            165     -0.32765              0.04855              0.17323         *
 * Ni            166     -0.11959             -0.02546             -0.02592         *
 * Ni            167     -0.06241             -0.16855              0.10102         *
 * Ni            168     -0.17535              0.16127              0.27021         *
 * Ni            169     -0.02962             -0.11345             -0.06269         *
 * Ni            170      0.05027              0.13127             -0.04456         *
 * Ni            171      0.36041              0.12569              0.36216         *
 * Ni            172      0.28729             -0.14998             -0.10468         *
 * Ni            173     -0.26794              0.25772             -0.05614         *
 * Ni            174      0.11472             -0.12011              0.06528         *
 * Ni            175      0.04808             -0.15481             -0.03403         *
 * Ni            176     -0.01293             -0.05389              0.23511         *
 * Ni            177      0.02891             -0.01957             -0.15021         *
 * Ni            178      0.02308              0.08320             -0.23684         *
 * Ni            179      0.39640             -0.06394              0.06993         *
 * Ni            180     -0.08031              0.02085             -0.10572         *
 * Ni            181     -0.03937             -0.00960              0.04840         *
 * Ni            182     -0.15969             -0.16095             -0.08070         *
 * Ni            183      0.06522              0.10246              0.37670         *
 * Ni            184     -0.14369              0.16181              0.00903         *
 * Ni            185      0.16442             -0.04607              0.03170         *
 * Ni            186     -0.00835             -0.09339             -0.12797         *
 * Ni            187     -0.07299             -0.10388             -0.17941         *
 * Ni            188      0.04387              0.17968             -0.05380         *
 * Ni            189     -0.02561              0.09627              0.31518         *
 * Ni            190      0.11758             -0.03122             -0.18294         *
 * Ni            191     -0.05762              0.02774             -0.10288         *
 * Ni            192      0.07362             -0.02039             -0.13988         *
 *                                                                                  *
 ************************************************************************************
 LBFGS: finished iteration     0 with enthalpy= -2.71384788E+005 eV
  
 +-----------+-----------------+-----------------+------------+-----+ <-- LBFGS
 | Parameter |      value      |    tolerance    |    units   | OK? | <-- LBFGS
 +-----------+-----------------+-----------------+------------+-----+ <-- LBFGS
 |  dE/ion   |   0.000000E+000 |   2.000000E-005 |         eV | No  | <-- LBFGS
 |  |F|max   |   9.309390E-001 |   5.000000E-002 |       eV/A | No  | <-- LBFGS
 |  |dR|max  |   0.000000E+000 |   1.000000E-003 |          A | No  | <-- LBFGS
 +-----------+-----------------+-----------------+------------+-----+ <-- LBFGS
  

================================================================================
 Starting LBFGS iteration          1 ...
================================================================================
  
 +------------+-------------+-------------+-----------------+ <-- min LBFGS
 |    Step    |   lambda    |   F.delta'  |    enthalpy     | <-- min LBFGS
 +------------+-------------+-------------+-----------------+ <-- min LBFGS
 |  previous  |    0.000000 |    2.084992 |  -271384.787553 | <-- min LBFGS
 +------------+-------------+-------------+-----------------+ <-- min LBFGS
  

--------------------------------------------------------------------------------
 LBFGS: starting iteration         1 with trial guess (lambda=  1.000000)
--------------------------------------------------------------------------------
 
                           -------------------------------
                                     Cell Contents
                           -------------------------------
 
            xxxxxxxxxxxxxxxxxxxxxxxxxxxxxxxxxxxxxxxxxxxxxxxxxxxxxxxxxxxxxxxxx
            x  Element         Atom        Fractional coordinates of atoms  x
            x                 Number           u          v          w      x
            x---------------------------------------------------------------x
            x  Al                1         0.570140   0.307953   0.813417   x
            x  Al                2         0.818148   0.308855   0.812792   x
            x  Al                3         0.568942   0.558661   0.814336   x
            x  Al                4         0.817609   0.558334   0.813250   x
            x  Al                5         0.573899   0.808663   0.809663   x
            x  Al                6         0.818466   0.807825   0.812450   x
            x  Al                7         0.571080   0.058597   0.813103   x
            x  Al                8         0.819199   0.058781   0.812124   x
            x  Al                9         0.569420   0.306735   0.063298   x
            x  Al               10         0.818586   0.308128   0.062635   x
            x  Al               11         0.573560   0.553984   0.062761   x
            x  Al               12         0.817563   0.558324   0.062581   x
            x  Al               13         0.576429   0.813467   0.063072   x
            x  Al               14         0.818948   0.808611   0.062401   x
            x  Al               15         0.573191   0.057768   0.059264   x
            x  Al               16         0.819599   0.058538   0.062279   x
            x  Al               17         0.576454   0.302540   0.312570   x
            x  Al               18         0.818855   0.308572   0.312846   x
            x  Al               19         0.574786   0.563944   0.311365   x
            x  Al               20         0.817882   0.558896   0.312621   x
            x  Al               21         0.574758   0.808796   0.315637   x
            x  Al               22         0.819385   0.808400   0.313316   x
            x  Al               23         0.576841   0.058145   0.318833   x
            x  Al               24         0.820241   0.057874   0.313519   x
            x  Al               25         0.572358   0.308722   0.562874   x
            x  Al               26         0.818515   0.309366   0.563703   x
            x  Al               27         0.569726   0.558419   0.563507   x
            x  Al               28         0.818002   0.558383   0.563431   x
            x  Al               29         0.570124   0.808022   0.563635   x
            x  Al               30         0.819405   0.807661   0.563728   x
            x  Al               31         0.571896   0.058090   0.562376   x
            x  Al               32         0.820069   0.058460   0.564132   x
            x  Al               33         0.328759   0.182906   0.683425   x
            x  Al               34         0.056115   0.057386   0.557811   x
            x  Al               35         0.192437   0.189893   0.555171   x
            x  Al               36         0.321899   0.935127   0.688846   x
            x  Al               37         0.192799   0.929488   0.554373   x
            x  Al               38         0.318474   0.687202   0.690557   x
            x  Al               39         0.074735   0.687483   0.678666   x
            x  Al               40         0.197897   0.188954   0.322425   x
            x  Al               41         0.066553   0.805913   0.315367   x
            x  Al               42         0.325171   0.685512   0.437997   x
            x  Al               43         0.192502   0.667395   0.313581   x
            x  Al               44         0.440289   0.432739   0.320405   x
            x  Al               45         0.328015   0.549007   0.561099   x
            x  Al               46         0.193060   0.432830   0.311313   x
            x  Al               47         0.061256   0.434683   0.438648   x
            x  Al               48         0.317572   0.061456   0.062247   x
            x  Al               49         0.439713   0.058159   0.195450   x
            x  Al               50         0.186414   0.054661   0.934810   x
            x  Al               51         0.067792   0.184811   0.191129   x
            x  Al               52         0.433084   0.813795   0.189985   x
            x  Al               53         0.070994   0.945341   0.191504   x
            x  Al               54         0.201168   0.808190   0.181927   x
            x  Al               55         0.431754   0.675081   0.062436   x
            x  Al               56         0.322479   0.430429   0.180485   x
            x  Al               57         0.183681   0.424903   0.060273   x
            x  Al               58         0.187149   0.186050   0.806516   x
            x  Al               59         0.433679   0.814964   0.935642   x
            x  Al               60         0.192275   0.810951   0.937169   x
            x  Al               61         0.191367   0.426227   0.804361   x
            x  Al               62         0.192585   0.426367   0.569001   x
            x  Al               63         0.187739   0.565419   0.933168   x
            x  Ni                1         0.567726   0.431644   0.937541   x
            x  Ni                2         0.693823   0.307868   0.938014   x
            x  Ni                3         0.693253   0.433465   0.813370   x
            x  Ni                4         0.817670   0.433512   0.938004   x
            x  Ni                5         0.942576   0.308933   0.937585   x
            x  Ni                6         0.942475   0.433923   0.812882   x
            x  Ni                7         0.563500   0.686757   0.941384   x
            x  Ni                8         0.692552   0.558754   0.937943   x
            x  Ni                9         0.692629   0.682723   0.813817   x
            x  Ni               10         0.818296   0.683174   0.937724   x
            x  Ni               11         0.942344   0.558442   0.937782   x
            x  Ni               12         0.942770   0.683010   0.812792   x
            x  Ni               13         0.567984   0.932178   0.935918   x
            x  Ni               14         0.694637   0.808560   0.936881   x
            x  Ni               15         0.695034   0.933897   0.811862   x
            x  Ni               16         0.819410   0.933433   0.936862   x
            x  Ni               17         0.942827   0.808038   0.937334   x
            x  Ni               18         0.943286   0.933017   0.812362   x
            x  Ni               19         0.568232   0.183326   0.937575   x
            x  Ni               20         0.695037   0.058274   0.936468   x
            x  Ni               21         0.693944   0.183609   0.812457   x
            x  Ni               22         0.818836   0.183564   0.937275   x
            x  Ni               23         0.943218   0.058488   0.937167   x
            x  Ni               24         0.943145   0.184003   0.812575   x
            x  Ni               25         0.566539   0.431963   0.191466   x
            x  Ni               26         0.694310   0.306828   0.187186   x
            x  Ni               27         0.693322   0.431685   0.063611   x
            x  Ni               28         0.818216   0.433413   0.187611   x
            x  Ni               29         0.942608   0.308789   0.187882   x
            x  Ni               30         0.942234   0.433784   0.062731   x
            x  Ni               31         0.563904   0.687292   0.183500   x
            x  Ni               32         0.693709   0.559244   0.187162   x
            x  Ni               33         0.693573   0.683791   0.062538   x
            x  Ni               34         0.818697   0.683860   0.187295   x
            x  Ni               35         0.942154   0.558674   0.187768   x
            x  Ni               36         0.942681   0.683339   0.062588   x
            x  Ni               37         0.567527   0.935038   0.190051   x
            x  Ni               38         0.694734   0.809608   0.188158   x
            x  Ni               39         0.696276   0.934785   0.062420   x
            x  Ni               40         0.819948   0.933511   0.187965   x
            x  Ni               41         0.943157   0.808233   0.187798   x
            x  Ni               42         0.943188   0.933208   0.062391   x
            x  Ni               43         0.568405   0.179074   0.188249   x
            x  Ni               44         0.694970   0.057574   0.188065   x
            x  Ni               45         0.694610   0.182765   0.062534   x
            x  Ni               46         0.819562   0.182851   0.187431   x
            x  Ni               47         0.943684   0.058294   0.187886   x
            x  Ni               48         0.943090   0.183568   0.062439   x
            x  Ni               49         0.570473   0.433600   0.434656   x
            x  Ni               50         0.695953   0.308376   0.438640   x
            x  Ni               51         0.694500   0.433447   0.312198   x
            x  Ni               52         0.818287   0.434126   0.438132   x
            x  Ni               53         0.942802   0.309253   0.438186   x
            x  Ni               54         0.942314   0.434043   0.312933   x
            x  Ni               55         0.568289   0.684375   0.439172   x
            x  Ni               56         0.694064   0.559257   0.438222   x
            x  Ni               57         0.694833   0.684815   0.312090   x
            x  Ni               58         0.818753   0.683254   0.438379   x
            x  Ni               59         0.942502   0.558697   0.438003   x
            x  Ni               60         0.942557   0.683309   0.312999   x
            x  Ni               61         0.570290   0.932641   0.439839   x
            x  Ni               62         0.695591   0.808082   0.439751   x
            x  Ni               63         0.696664   0.933233   0.314141   x
            x  Ni               64         0.820228   0.932816   0.439188   x
            x  Ni               65         0.943428   0.807822   0.438422   x
            x  Ni               66         0.943701   0.933019   0.313367   x
            x  Ni               67         0.571302   0.182832   0.439421   x
            x  Ni               68         0.697491   0.057920   0.440351   x
            x  Ni               69         0.697744   0.182016   0.313432   x
            x  Ni               70         0.820121   0.183639   0.439154   x
            x  Ni               71         0.943767   0.058307   0.438522   x
            x  Ni               72         0.942874   0.183639   0.313195   x
            x  Ni               73         0.567661   0.433845   0.689271   x
            x  Ni               74         0.693382   0.308807   0.688367   x
            x  Ni               75         0.692916   0.434198   0.563008   x
            x  Ni               76         0.817841   0.433900   0.688191   x
            x  Ni               77         0.943046   0.309298   0.687957   x
            x  Ni               78         0.942747   0.434103   0.563111   x
            x  Ni               79         0.567359   0.683266   0.687861   x
            x  Ni               80         0.692803   0.558385   0.688681   x
            x  Ni               81         0.693858   0.682900   0.563613   x
            x  Ni               82         0.818182   0.682645   0.688467   x
            x  Ni               83         0.942718   0.558430   0.688116   x
            x  Ni               84         0.942995   0.682898   0.563272   x
            x  Ni               85         0.568575   0.933868   0.686986   x
            x  Ni               86         0.694789   0.807919   0.687319   x
            x  Ni               87         0.695374   0.932936   0.563924   x
            x  Ni               88         0.819446   0.933273   0.687949   x
            x  Ni               89         0.943152   0.807747   0.688066   x
            x  Ni               90         0.943898   0.932885   0.563423   x
            x  Ni               91         0.568169   0.182811   0.687499   x
[...]
             Al 53 -- Ni 163                 0.16        -0.00          2.58877
            Ni 126 -- Ni 144                 0.07         0.00          2.58879
            Ni 151 -- Ni 152                 0.03         0.00          2.58907
             Al 5  -- Ni 108                 0.17         0.00          2.58929
             Al 9  -- Ni 25                  0.20        -0.00          2.58953
             Al 21 -- Ni 37                  0.20         0.00          2.58986
            Ni 116 -- Ni 118                 0.02        -0.00          2.58992
             Al 25 -- Ni 49                  0.19        -0.00          2.59007
             Al 40 -- Ni 145                 0.17         0.00          2.59012
            Ni 14  -- Ni 39                  0.02        -0.00          2.59012
             Al 60 -- Ni 112                 0.17        -0.00          2.59038
            Ni 49  -- Ni 75                  0.06         0.00          2.59038
            Ni 138 -- Ni 139                -0.01         0.00          2.59048
             Al 3  -- Ni 180                 0.17        -0.00          2.59077
             Al 15 -- Ni 144                 0.17         0.00          2.59100
            Ni 111 -- Ni 113                 0.08        -0.00          2.59101
             Al 49 -- Ni 37                  0.17         0.00          2.59118
            Ni 133 -- Ni 135                 0.02        -0.00          2.59129
            Ni 71  -- Ni 96                  0.02         0.00          2.59149
             Al 36 -- Ni 190                 0.18        -0.00          2.59160
            Ni 114 -- Ni 140                 0.05        -0.00          2.59160
            Ni 67  -- Ni 165                 0.02         0.00          2.59171
             Al 15 -- Ni 44                  0.20        -0.00          2.59176
            Ni 1   -- Ni 8                   0.03        -0.00          2.59177
             Al 16 -- Ni 40                  0.19        -0.00          2.59185
            Ni 127 -- Ni 135                 0.09        -0.00          2.59195
             Al 23 -- Ni 37                  0.20         0.00          2.59228
            Ni 55  -- Ni 181                 0.07         0.00          2.59237
            Ni 101 -- Ni 144                 0.09        -0.00          2.59243
             Al 62 -- Ni 179                 0.11        -0.00          2.59261
             Al 36 -- Ni 188                 0.19        -0.00          2.59303
            Ni 110 -- Ni 112                 0.05        -0.00          2.59306
            Ni 119 -- Ni 144                 0.08        -0.00          2.59307
             Al 24 -- Ni 46                  0.19         0.00          2.59325
            Ni 29  -- Ni 48                  0.01        -0.00          2.59332
            Ni 25  -- Ni 32                  0.03         0.00          2.59352
            Ni 102 -- Ni 172                 0.06        -0.00          2.59406
             Al 9  -- Ni 43                  0.21        -0.00          2.59448
            Ni 35  -- Ni 129                 0.10         0.00          2.59450
            Ni 108 -- Ni 182                 0.08         0.00          2.59467
            Ni 106 -- Ni 131                 0.01        -0.00          2.59502
            Ni 41  -- Ni 42                  0.03        -0.00          2.59563
            Ni 13  -- Ni 139                -0.00         0.00          2.59567
            Ni 129 -- Ni 149                 0.09        -0.00          2.59595
            Ni 37  -- Ni 38                  0.07         0.00          2.59617
             Al 9  -- Ni 144                 0.19         0.00          2.59629
            Ni 55  -- Ni 57                  0.02         0.00          2.59661
             Al 38 -- Ni 188                 0.17        -0.00          2.59667
             Al 56 -- Ni 130                 0.13         0.00          2.59667
            Ni 49  -- Ni 151                 0.04         0.00          2.59691
            Ni 169 -- Ni 175                -0.03        -0.00          2.59713
             Al 60 -- Ni 113                 0.19        -0.00          2.59730
            Ni 13  -- Ni 120                 0.04         0.00          2.59791
            Ni 152 -- Ni 158                 0.02         0.00          2.59807
             Al 27 -- Ni 49                  0.19        -0.00          2.59823
            Ni 117 -- Ni 122                 0.04        -0.00          2.59856
            Ni 172 -- Ni 177                -0.01        -0.00          2.59866
             Al 45 -- Ni 177                 0.14         0.00          2.59896
             Al 22 -- Ni 62                  0.19        -0.00          2.59908
             Al 61 -- Ni 97                  0.18         0.00          2.59942
            Ni 129 -- Ni 132                 0.12        -0.00          2.59949
             Al 15 -- Ni 37                  0.19        -0.00          2.59950
             Al 58 -- Ni 117                 0.15        -0.00          2.59951
            Ni 95  -- Ni 96                  0.01        -0.00          2.59956
            Ni 113 -- Ni 139                 0.01        -0.00          2.59990
            Ni 130 -- Ni 149                -0.01         0.00          2.59999
            Ni 31  -- Ni 134                 0.04         0.00          2.60024
            Ni 155 -- Ni 157                 0.07         0.00          2.60025
            Ni 99  -- Ni 169                 0.02        -0.00          2.60027
            Ni 155 -- Ni 156                 0.06         0.00          2.60038
             Al 34 -- Ni 162                 0.16        -0.00          2.60045
            Ni 41  -- Ni 66                 -0.03         0.00          2.60080
             Al 51 -- Ni 124                 0.19        -0.00          2.60099
            Ni 138 -- Ni 159                 0.02         0.00          2.60136
            Ni 13  -- Ni 20                  0.06         0.00          2.60139
            Ni 13  -- Ni 39                  0.01         0.00          2.60165
             Al 38 -- Ni 182                 0.19        -0.00          2.60205
             Al 11 -- Ni 33                  0.19        -0.00          2.60214
            Ni 173 -- Ni 192                 0.00         0.00          2.60259
            Ni 178 -- Ni 185                 0.08        -0.00          2.60266
            Ni 130 -- Ni 131                 0.11        -0.00          2.60271
            Ni 112 -- Ni 122                 0.11        -0.00          2.60319
             Al 63 -- Ni 97                  0.17         0.00          2.60388
            Ni 59  -- Ni 78                 -0.00         0.00          2.60412
            Ni 161 -- Ni 162                -0.01         0.00          2.60421
             Al 40 -- Ni 143                 0.19         0.00          2.60539
            Ni 117 -- Ni 191                 0.08         0.00          2.60559
            Ni 65  -- Ni 148                 0.04         0.00          2.60560
             Al 57 -- Ni 135                 0.15        -0.00          2.60564
             Al 19 -- Ni 151                 0.17        -0.00          2.60643
            Ni 129 -- Ni 130                 0.09         0.00          2.60652
            Ni 111 -- Ni 115                 0.04        -0.00          2.60693
            Ni 170 -- Ni 171                -0.03        -0.00          2.60696
            Ni 60  -- Ni 65                  0.01         0.00          2.60700
            Ni 178 -- Ni 184                 0.03        -0.00          2.60707
             Al 50 -- Ni 142                 0.15        -0.00          2.60712
            Ni 133 -- Ni 160                -0.03         0.00          2.60714
            Ni 104 -- Ni 177                 0.05        -0.00          2.60715
             Al 19 -- Ni 49                  0.19        -0.00          2.60735
             Al 58 -- Ni 122                 0.18        -0.00          2.60738
             Al 40 -- Ni 124                 0.19         0.00          2.60751
            Ni 71  -- Ni 90                  0.02         0.00          2.60755
             Al 41 -- Ni 129                 0.19         0.00          2.60774
            Ni 53  -- Ni 54                  0.00         0.00          2.60788
            Ni 142 -- Ni 143                 0.05        -0.00          2.60798
             Al 35 -- Ni 122                 0.18         0.00          2.60809
            Ni 47  -- Ni 163                 0.05        -0.00          2.60840
             Al 17 -- Ni 146                 0.15         0.00          2.60961
             Al 11 -- Ni 7                   0.19         0.00          2.60968
            Ni 169 -- Ni 172                 0.00        -0.00          2.60968
             Al 34 -- Ni 122                 0.16         0.00          2.60994
             Al 49 -- Ni 139                 0.17         0.00          2.61003
             Al 56 -- Ni 124                 0.14         0.00          2.61054
            Ni 168 -- Ni 177                 0.04        -0.00          2.61110
            Ni 158 -- Ni 181                -0.01         0.00          2.61125
            Ni 148 -- Ni 150                 0.03         0.00          2.61132
             Al 56 -- Ni 153                 0.17        -0.00          2.61179
             Al 51 -- Ni 163                 0.16        -0.00          2.61204
            Ni 54  -- Ni 59                  0.00         0.00          2.61210
             Al 43 -- Ni 155                 0.18        -0.00          2.61239
            Ni 127 -- Ni 134                 0.02         0.00          2.61260
            Ni 102 -- Ni 109                 0.00        -0.00          2.61326
             Al 48 -- Ni 120                 0.19        -0.00          2.61350
            Ni 156 -- Ni 167                 0.11        -0.00          2.61364
            Ni 102 -- Ni 108                 0.11        -0.00          2.61367
            Ni 115 -- Ni 117                 0.10        -0.00          2.61413
             Al 11 -- Ni 31                  0.19        -0.00          2.61447
            Ni 26  -- Ni 43                  0.06         0.00          2.61471
             Al 21 -- Ni 159                 0.15         0.00          2.61514
             Al 53 -- Ni 137                 0.18         0.00          2.61525
            Ni 42  -- Ni 47                 -0.01        -0.00          2.61580
            Ni 110 -- Ni 118                 0.04        -0.00          2.61642
            Ni 174 -- Ni 182                 0.00         0.00          2.61648
             Al 61 -- Ni 104                 0.15        -0.00          2.61666
             Al 11 -- Ni 134                 0.16        -0.00          2.61682
            Ni 152 -- Ni 160                 0.01         0.00          2.61719
            Ni 53  -- Ni 78                  0.00         0.00          2.61733
            Ni 65  -- Ni 66                  0.01         0.00          2.61744
            Ni 143 -- Ni 167                 0.00         0.00          2.61759
             Al 36 -- Ni 184                 0.18         0.00          2.61835
            Ni 108 -- Ni 111                 0.03        -0.00          2.61844
             Al 58 -- Ni 119                 0.17        -0.00          2.61937
            Ni 138 -- Ni 160                 0.05         0.00          2.61996
            Ni 37  -- Ni 39                  0.01         0.00          2.62153
            Ni 126 -- Ni 128                 0.09         0.00          2.62185
             Al 36 -- Ni 122                 0.17         0.00          2.62288
            Ni 121 -- Ni 173                 0.01         0.00          2.62337
            Ni 178 -- Ni 179                 0.05        -0.00          2.62429
            Ni 158 -- Ni 160                 0.11         0.00          2.62429
             Al 5  -- Ni 115                 0.15         0.00          2.62531
            Ni 140 -- Ni 141                 0.07        -0.00          2.62550
             Al 50 -- Ni 117                 0.14        -0.00          2.62597
            Ni 152 -- Ni 153                 0.10        -0.00          2.62600
            Ni 25  -- Ni 127                 0.02         0.00          2.62658
            Ni 150 -- Ni 153                 0.10         0.00          2.62666
            Ni 136 -- Ni 141                 0.01        -0.00          2.62775
            Ni 7   -- Ni 107                 0.02        -0.00          2.62784
             Al 47 -- Ni 150                 0.18        -0.00          2.62802
            Ni 159 -- Ni 160                 0.09         0.00          2.62898
             Al 11 -- Ni 107                 0.16         0.00          2.62915
             Al 39 -- Ni 178                 0.18        -0.00          2.62918
            Ni 155 -- Ni 188                 0.03         0.00          2.62935
            Ni 124 -- Ni 125                 0.03        -0.00          2.62952
            Ni 106 -- Ni 135                 0.04        -0.00          2.63132
             Al 42 -- Ni 153                 0.20         0.00          2.63144
            Ni 156 -- Ni 157                 0.12        -0.00          2.63191
            Ni 154 -- Ni 155                 0.06         0.00          2.63227
             Al 5  -- Ni 7                   0.19         0.00          2.63262
             Al 21 -- Ni 31                  0.19         0.00          2.63285
            Ni 126 -- Ni 127                -0.00         0.00          2.63293
            Ni 25  -- Ni 27                  0.05         0.00          2.63638
             Al 59 -- Ni 7                   0.16        -0.00          2.63721
             Al 19 -- Ni 31                  0.17         0.00          2.63735
             Al 52 -- Ni 37                  0.15        -0.00          2.63761
             Al 37 -- Ni 190                 0.15        -0.00          2.63941
            Ni 114 -- Ni 138                 0.00        -0.00          2.64041
            Ni 156 -- Ni 162                 0.13         0.00          2.64141
             Al 63 -- Ni 100                 0.15        -0.00          2.64155
             Al 23 -- Ni 159                 0.14         0.00          2.64316
             Al 48 -- Al 49                  0.26         0.00          2.64495
             Al 23 -- Ni 166                 0.14         0.00          2.64551
            Ni 162 -- Ni 164                 0.01         0.00          2.64559
             Al 48 -- Al 50                  0.25        -0.00          2.64600
             Al 35 -- Ni 189                 0.15         0.00          2.64705
             Al 37 -- Ni 122                 0.16         0.00          2.64973
             Al 13 -- Ni 139                 0.16         0.00          2.65013
             Al 35 -- Ni 190                 0.13        -0.00          2.65088
             Al 52 -- Ni 31                  0.15        -0.00          2.65180
            Ni 161 -- Ni 170                -0.03         0.00          2.65187
             Al 50 -- Al 58                  0.24        -0.00          2.65269
             Al 50 -- Ni 119                 0.14        -0.00          2.65338
            Ni 7   -- Ni 8                   0.06        -0.00          2.65429
            Ni 31  -- Ni 32                  0.05         0.00          2.65514
             Al 3  -- Ni 7                   0.17         0.00          2.65562
             Al 45 -- Al 62                  0.29         0.00          2.65564
             Al 45 -- Ni 178                 0.11         0.00          2.65642
            Ni 114 -- Ni 133                -0.03        -0.00          2.65717
             Al 43 -- Ni 160                 0.14        -0.00          2.66397
             Al 44 -- Al 56                  0.27         0.00          2.66439
             Al 33 -- Ni 122                 0.14         0.00          2.66535
             Al 42 -- Al 43                  0.24         0.00          2.66597
            Ni 7   -- Ni 9                   0.06        -0.00          2.66906
             Al 23 -- Al 49                  0.24         0.00          2.67005
            Ni 149 -- Ni 150                 0.01         0.00          2.67265
            Ni 168 -- Ni 169                 0.03        -0.00          2.67789
             Al 44 -- Ni 134                 0.11         0.00          2.67978
            Ni 164 -- Ni 170                 0.05         0.00          2.68018
            Ni 31  -- Ni 57                  0.05         0.00          2.68481
             Al 46 -- Al 56                  0.26         0.00          2.68506
             Al 42 -- Al 45                  0.26         0.00          2.68856
             Al 56 -- Al 57                  0.22        -0.00          2.69248
            Ni 134 -- Ni 135                 0.08         0.00          2.69781
             Al 44 -- Ni 126                 0.08         0.00          2.70528
             Al 46 -- Al 47                  0.25         0.00          2.70565
             Al 5  -- Al 59                  0.20        -0.00          2.71185
             Al 44 -- Ni 25                  0.11        -0.00          2.71267
             Al 11 -- Al 55                  0.20         0.00          2.71385
             Al 36 -- Al 37                  0.22         0.00          2.71774
             Al 33 -- Al 35                  0.21        -0.00          2.72592
             Al 34 -- Al 35                  0.19        -0.00          2.73144
             Al 47 -- Al 62                  0.22        -0.00          2.73352
             Al 57 -- Al 63                  0.19        -0.00          2.73653
             Al 33 -- Al 58                  0.20        -0.00          2.74294
             Al 17 -- Al 44                  0.17         0.00          2.74330
             Al 34 -- Al 37                  0.19         0.00          2.74392
             Al 21 -- Al 52                  0.20         0.00          2.74453
             Al 61 -- Al 63                  0.20        -0.00          2.75127
             Al 42 -- Ni 150                 0.14         0.00          2.75656
             Al 19 -- Al 44                  0.17         0.00          2.75910
             Al 52 -- Al 55                  0.20         0.00          2.76127
             Al 55 -- Al 59                  0.19        -0.00          2.76404
             Al 41 -- Al 43                  0.17         0.00          2.76409
             Al 38 -- Al 45                  0.17        -0.00          2.76741
             Al 40 -- Al 51                  0.20        -0.00          2.77442
             Al 15 -- Al 49                  0.19         0.00          2.77478
             Al 53 -- Al 54                  0.18        -0.00          2.77913
             Al 43 -- Al 54                  0.16         0.00          2.79175
             Al 41 -- Al 53                  0.17        -0.00          2.79979
             Al 13 -- Al 59                  0.17        -0.00          2.82628
             Al 13 -- Al 52                  0.17         0.00          2.82982
             Al 41 -- Al 54                  0.12         0.00          2.87540
             Al 13 -- Al 55                  0.07         0.00          2.97230
================================================================================
 

Writing analysis data to castep.castep_bin

Writing model to castep.check
 
 A BibTeX formatted list of references used in this run has been written to 
 castep.bib
 
Initialisation time =     13.47 s
Calculation time    =  18218.17 s
Finalisation time   =     14.01 s
Total time          =  18245.64 s
Peak Memory Use     = 2377320 kB
  
Overall parallel efficiency rating: Good (71%)                                  
  
Data was distributed by:-
G-vector (48-way); efficiency rating: Good (71%)                                
