 +-------------------------------------------------+
 |                                                 |
 |      CCC   AA    SSS  TTTTT  EEEEE  PPPP        |
 |     C     A  A  S       T    E      P   P       |
 |     C     AAAA   SS     T    EEE    PPPP        |
 |     C     A  A     S    T    E      P           |
 |      CCC  A  A  SSS     T    EEEEE  P           |
 |                                                 |
 +-------------------------------------------------+
 |                                                 |
 | Welcome to Academic Release CASTEP version 22.11|
 | Ab Initio Total Energy Program                  |
 |                                                 |
 | Authors:                                        |
 | M. Segall, M. Probert, C. Pickard, P. Hasnip,   |
 | S. Clark, K. Refson, J. R. Yates, M. Payne      |
 |                                                 |
 | Contributors:                                   |
 | P. Lindan, P. Haynes, J. White, V. Milman,      |
 | N. Govind, M. Gibson, P. Tulip, V. Cocula,      |
 | B. Montanari, D. Quigley, M. Glover,            |
 | L. Bernasconi, A. Perlov, M. Plummer,           |
 | E. McNellis, J. Meyer, J. Gale, D. Jochym       |
 | J. Aarons, B. Walker, R. Gillen, D. Jones       |
 | T. Green, I. J. Bush, C. J. Armstrong,          |
 | E. J. Higgins, E. L. Brown, M. S. McFly,        |
 | J. Wilkins, B-C. Shih, P. J. P. Byrne,          |
 | R. J. Maurer, J. C. Womack, J. Dziedzic,        |
 | A. Bartok-Partay, L. LeBlanc, T. K. Stenczel,   |
 | J. Kermode, S. Sturniolo, B. Shi, B. Durham     |
 | M. Evans, M. J. Smith                           |
 |                                                 |
 | Copyright (c) 2000 - 2021                       |
 |                                                 |
 |     Distributed under license from Cambridge    |
 |     Enterprise for academic use only.           |
 |                                                 |
 | Please cite                                     |
 |                                                 |
 |     "First principles methods using CASTEP"     |
 |                                                 |
 |         Zeitschrift fuer Kristallographie       |
 |           220(5-6) pp. 567-570 (2005)           |
 |                                                 |
 | S. J. Clark, M. D. Segall, C. J. Pickard,       |
 | P. J. Hasnip, M. J. Probert, K. Refson,         |
 | M. C. Payne                                     |
 |                                                 |
 |       in all publications arising from          |
 |              your use of CASTEP                 |
 |                                                 |
 +-------------------------------------------------+
 |                                                 |
 |              http://www.castep.org              |
 |                                                 |
 +-------------------------------------------------+
 
 
 
 Compiled for linux_x86_64_ifort on Wed, 18 Jan 2023 15:42:19 +0000
 from code version b807d1bba+  Castep221_branch  Wed Sep 14 11:18:35 2022 +0100
 Compiler: Intel Fortran 19.0.5.281; Optimisation: fast
 MATHLIBS: Intel MKL(2019.0.5) (LAPACK version 3.7.0)
 FFT Lib : mkl
 Fundamental constants values: CODATA 2014
 
 Run started: Thu, 27 Apr 2023 01:22:09 +0100
 
 Atomic calculation performed for Al: 1s2 2s2 2p6 3s2 3p1
 
 Converged in 52 iterations to an ae energy of -6606.982 eV
 
   ============================================================                
   | Pseudopotential Report - Date of generation 27-04-2023   |                
   ------------------------------------------------------------                
   | Element: Al Ionic charge:  3.00 Level of theory: RPBE    |                
   | Atomic Solver: Koelling-Harmon                           |                
   |                                                          |                
   |               Reference Electronic Structure             |                
   |         Orbital         Occupation         Energy        |                
   |            3s              2.000           -0.284        |                
   |            3p              1.000           -0.100        |                
   |                                                          |                
   |                 Pseudopotential Definition               |                
   |        Beta     l      e      Rc     scheme   norm       |                
   |          1      0   -0.284   2.192     qc      0         |                
   |          2      0    0.250   2.192     qc      0         |                
   |          3      1   -0.100   2.192     qc      0         |                
   |          4      1    0.250   2.192     qc      0         |                
   |          5      2    0.000   2.000     qc      0         |                
   |          6      2    0.250   2.000     qc      0         |                
   |         loc     3    0.000   2.192     pn      0         |                
   |                                                          |                
   | Augmentation charge Rinner = 1.398                       |                
   | Partial core correction Rc = 1.398                       |                
   ------------------------------------------------------------                
   | "3|2.2|2.2|1.4|4|5|5|30:31:32U2U2"                       |                
   ------------------------------------------------------------                
   |      Author: Chris J. Pickard, Cambridge University      |                
   ============================================================                
 
 Atomic calculation performed for Ni: 1s2 2s2 2p6 3s2 3p6 3d8 4s2
 
 Converged in 109 iterations to an ae energy of -41381.414 eV
 
   ============================================================                
   | Pseudopotential Report - Date of generation 27-04-2023   |                
   ------------------------------------------------------------                
   | Element: Ni Ionic charge: 10.00 Level of theory: RPBE    |                
   | Atomic Solver: Koelling-Harmon                           |                
   |                                                          |                
   |               Reference Electronic Structure             |                
   |         Orbital         Occupation         Energy        |                
   |            3d              8.000           -0.324        |                
   |            4s              2.000           -0.204        |                
   |                                                          |                
   |                 Pseudopotential Definition               |                
   |        Beta     l      e      Rc     scheme   norm       |                
   |          1      0   -0.204   2.401     qc      0         |                
   |          2      0    0.250   2.401     qc      0         |                
   |          3      1    0.000   2.401     qc      0         |                
   |          4      1    0.250   2.401     qc      0         |                
   |          5      2   -0.324   1.999     qc      0         |                
   |          6      2    0.250   1.999     qc      0         |                
   |         loc     3    0.000   2.401     pn      0         |                
   |                                                          |                
   | Augmentation charge Rinner = 1.001                       |                
   | Partial core correction Rc = 1.001                       |                
   ------------------------------------------------------------                
   | "3|2.4|2.4|1.0|8|9|10|40:41:32U2U2(qc=5.5)"              |                
   ------------------------------------------------------------                
   |      Author: Chris J. Pickard, Cambridge University      |                
   ============================================================                
 
 Pseudo atomic calculation performed for Al 3s2 3p1
 
 Converged in 13 iterations to a total energy of -107.6593 eV
 
 Pseudo atomic calculation performed for Ni 3d8 4s2
 
 Converged in 41 iterations to a total energy of -1369.7890 eV
 Calculation parallelised over 128 processes.
 Data is distributed by G-vector(128-way)

 ************************************ Title ************************************
 

 ***************************** General Parameters ******************************
  
 output verbosity                               : normal  (1)
 write checkpoint data to                       : castep.check
 type of calculation                            : geometry optimization
 stress calculation                             : off
 density difference calculation                 : off
 electron localisation func (ELF) calculation   : off
 Hirshfeld analysis                             : off
 polarisation (Berry phase) analysis            : off
 molecular orbital projected DOS                : off
 deltaSCF calculation                           : off
 unlimited duration calculation
 timing information                             : on
 memory usage estimate                          : on
 write extra output files                       : on
 write final potential to formatted file        : off
 write final density to formatted file          : off
 write BibTeX reference list                    : on
 write OTFG pseudopotential files               : on
 write electrostatic potential file             : on
 write bands file                               : on
 checkpoint writing                             : both castep_bin and check files
  
 output         length unit                     : A
 output           mass unit                     : amu
 output           time unit                     : ps
 output         charge unit                     : e
 output           spin unit                     : hbar/2
 output         energy unit                     : eV
 output          force unit                     : eV/A
 output       velocity unit                     : A/ps
 output       pressure unit                     : GPa
 output     inv_length unit                     : 1/A
 output      frequency unit                     : cm-1
 output force constant unit                     : eV/A**2
 output         volume unit                     : A**3
 output   IR intensity unit                     : (D/A)**2/amu
 output         dipole unit                     : D
 output         efield unit                     : eV/A/e
 output        entropy unit                     : J/mol/K
 output    efield chi2 unit                     : pm/V
  
 wavefunctions paging                           : none
 random number generator seed                   : randomised (12211346)
 data distribution                              : optimal for this architecture
 optimization strategy                          : maximize speed(+++)

 *********************** Exchange-Correlation Parameters ***********************
  
 using functional                               : revised Perdew Burke Ernzerhof
 relativistic treatment                         : Koelling-Harmon
 DFT+D: Semi-empirical dispersion correction    : off

 ************************* Pseudopotential Parameters **************************
  
 pseudopotential representation                 : reciprocal space
 <beta|phi> representation                      : reciprocal space
 spin-orbit coupling                            : off

 **************************** Basis Set Parameters *****************************
  
 plane wave basis set cut-off                   :   900.0000   eV
 size of standard grid                          :     1.7500
 size of   fine   gmax                          :    26.8966   1/A
 finite basis set correction                    : none

 **************************** Electronic Parameters ****************************
  
 number of  electrons                           :  2130.    
 net charge of system                           :  0.000    
 treating system as non-spin-polarized
 number of bands                                :       1177

 ********************* Electronic Minimization Parameters **********************
  
 Method: Treating system as metallic with density mixing treatment of electrons,
         and number of  SD  steps               :          1
         and number of  CG  steps               :          4
  
 total energy / atom convergence tol.           : 0.1000E-05   eV
 eigen-energy convergence tolerance             : 0.2167E-06   eV
 max force / atom convergence tol.              : ignored
 convergence tolerance window                   :          3   cycles
 max. number of SCF cycles                      :        200
 number of fixed-spin iterations                :         10
 smearing scheme                                : Gaussian
 smearing width                                 : 0.2000       eV
 Fermi energy convergence tolerance             : 0.2721E-13   eV
 periodic dipole correction                     : NONE
 periodically dump wavefunctions to             : castep.wvfn
 dump wavefunctions every                       :          1   SCF cycles

 ************************** Density Mixing Parameters **************************
  
 density-mixing scheme                          : Pulay
 max. length of mixing history                  :         20
 charge density mixing amplitude                : 0.8000    
 cut-off energy for mixing                      :  900.0       eV

 *********************** Population Analysis Parameters ************************
  
 Population analysis with cutoff                :  3.000       A
 Population analysis output                     : summary and pdos components

 ********************** Geometry Optimization Parameters ***********************
  
 optimization method                            : LBFGS
 max. no. of LBFGS updates                      : unbounded
 variable cell method                           : fixed basis quality
 max. number of steps                           :         30
 estimated bulk modulus                         :  500.0       GPa
 estimated <frequency>                          :  1668.       cm-1
 geom line minimiser                            : on
 with line minimiser tolerance                  :     0.4000
 total energy convergence tolerance             : 0.2000E-04   eV/atom
        max ionic |force| tolerance             : 0.5000E-01   eV/A
 max ionic |displacement| tolerance             : 0.1000E-02   A
   max |stress component| tolerance             : 0.1000       GPa
 convergence tolerance window                   :          2   steps
 backup results every                           :          5   steps
 write geom trajectory file                     : on

 *******************************************************************************
  
 
                           -------------------------------
                                      Unit Cell
                           -------------------------------
        Real Lattice(A)                      Reciprocal Lattice(1/A)
    14.4648280     0.0000000     0.0000000        0.434376773   0.000000000   0.000000000
     0.0000000    14.4648280     0.0000000        0.000000000   0.434376773   0.000000000
     0.0000000     0.0000000    14.4648280        0.000000000   0.000000000   0.434376773
 
                       Lattice parameters(A)       Cell Angles
                    a =     14.464828          alpha =   90.000000
                    b =     14.464828          beta  =   90.000000
                    c =     14.464828          gamma =   90.000000
 
                       Current cell volume =          3026.494030       A**3
                                   density =             4.316581   AMU/A**3
                                           =             7.167851     g/cm^3
 
                           -------------------------------
                                     Cell Contents
                           -------------------------------
                         Total number of ions in cell =  255
                      Total number of species in cell =    2
                        Max number of any one species =  195
 
            xxxxxxxxxxxxxxxxxxxxxxxxxxxxxxxxxxxxxxxxxxxxxxxxxxxxxxxxxxxx
            x  Element    Atom        Fractional coordinates of atoms  x
            x            Number           u          v          w      x
            x----------------------------------------------------------x
            x  Al           1         0.946140   0.692875   0.560910   x 
            x  Al           2         0.670795   0.562621   0.436543   x 
            x  Al           3         0.808361   0.698143   0.435054   x 
            x  Al           4         0.421272   0.684703   0.808907   x 
            x  Al           5         0.443849   0.560692   0.438739   x 
            x  Al           6         0.420864   0.325115   0.439933   x 
            x  Al           7         0.560685   0.687744   0.682863   x 
            x  Al           8         0.300245   0.572820   0.562555   x 
            x  Al           9         0.940129   0.442547   0.566224   x 
            x  Al          10         0.810621   0.438686   0.432950   x 
            x  Al          11         0.557949   0.202043   0.692395   x 
            x  Al          12         0.422694   0.189719   0.565288   x 
            x  Al          13         0.181594   0.328048   0.439415   x 
            x  Al          14         0.944467   0.938376   0.563037   x 
            x  Al          15         0.690429   0.193573   0.558294   x 
            x  Al          16         0.556492   0.944037   0.451180   x 
            x  Al          17         0.182190   0.055963   0.441332   x 
            x  Al          18         0.183404   0.190899   0.574985   x 
            x  Al          19         0.815529   0.696206   0.199629   x 
            x  Al          20         0.307942   0.564619   0.308067   x 
            x  Al          21         0.177683   0.697136   0.313696   x 
            x  Al          22         0.683324   0.318243   0.192858   x 
            x  Al          23         0.554874   0.319808   0.318312   x 
            x  Al          24         0.176911   0.326403   0.183879   x 
            x  Al          25         0.942429   0.187586   0.322332   x 
            x  Al          26         0.810703   0.185022   0.197108   x 
            x  Al          27         0.554835   0.073734   0.310988   x 
            x  Al          28         0.317298   0.195138   0.188335   x 
            x  Al          29         0.179135   0.189518   0.312707   x 
            x  Al          30         0.945930   0.942472   0.316145   x 
            x  Al          31         0.935458   0.194950   0.558924   x 
            x  Al          32         0.802998   0.068745   0.057632   x 
            x  Al          33         0.799745   0.937572   0.193694   x 
            x  Al          34         0.554969   0.812679   0.311157   x 
            x  Al          35         0.310548   0.942903   0.201903   x 
            x  Al          36         0.936441   0.568826   0.938560   x 
            x  Al          37         0.805530   0.562892   0.810757   x 
            x  Al          38         0.686498   0.691052   0.066496   x 
            x  Al          39         0.559525   0.684298   0.934518   x 
            x  Al          40         0.176517   0.687223   0.064881   x 
            x  Al          41         0.689176   0.455086   0.067964   x 
            x  Al          42         0.819014   0.318051   0.059356   x 
            x  Al          43         0.560054   0.445835   0.939057   x 
            x  Al          44         0.942876   0.071663   0.929725   x 
            x  Al          45         0.434442   0.062337   0.937211   x 
            x  Al          46         0.565641   0.201833   0.942246   x 
            x  Al          47         0.302863   0.065516   0.060612   x 
            x  Al          48         0.943488   0.934243   0.065312   x 
            x  Al          49         0.802270   0.930588   0.931030   x 
            x  Al          50         0.434679   0.824188   0.936195   x 
            x  Al          51         0.306882   0.817330   0.066498   x 
            x  Al          52         0.805210   0.695341   0.682524   x 
            x  Al          53         0.810016   0.320647   0.813375   x 
            x  Al          54         0.561936   0.440136   0.683934   x 
            x  Al          55         0.426506   0.443161   0.817425   x 
            x  Al          56         0.298381   0.437517   0.690015   x 
            x  Al          57         0.802604   0.935937   0.691715   x 
            x  Al          58         0.800122   0.942037   0.440259   x 
            x  Al          59         0.940665   0.069856   0.699142   x 
            x  Al          60         0.565026   0.060313   0.809078   x 
            x  Ni           1         0.058419   0.817241   0.815570   x 
            x  Ni           2         0.057926   0.941141   0.690961   x 
            x  Ni           3         0.058074   0.066221   0.816102   x 
            x  Ni           4         0.057197   0.191271   0.692121   x 
            x  Ni           5         0.056698   0.316779   0.816994   x 
            x  Ni           6         0.057747   0.442727   0.691264   x 
            x  Ni           7         0.057537   0.567932   0.814891   x 
            x  Ni           8         0.058088   0.693117   0.690735   x 
            x  Ni           9         0.058287   0.817699   0.064603   x 
            x  Ni          10         0.058794   0.941956   0.940361   x 
            x  Ni          11         0.060452   0.066749   0.064743   x 
            x  Ni          12         0.058302   0.191546   0.940343   x 
            x  Ni          13         0.056090   0.318003   0.062972   x 
            x  Ni          14         0.056131   0.442623   0.938927   x 
            x  Ni          15         0.054431   0.567209   0.063816   x 
            x  Ni          16         0.056520   0.692628   0.939094   x 
            x  Ni          17         0.055857   0.818141   0.314073   x 
            x  Ni          18         0.058277   0.942815   0.189488   x 
            x  Ni          19         0.058904   0.065570   0.315276   x 
            x  Ni          20         0.059014   0.192827   0.188723   x 
            x  Ni          21         0.059860   0.318425   0.314564   x 
            x  Ni          22         0.053860   0.444105   0.188375   x 
            x  Ni          23         0.055585   0.569212   0.314463   x 
            x  Ni          24         0.055595   0.692916   0.189344   x 
            x  Ni          25         0.057179   0.817128   0.565825   x 
            x  Ni          26         0.056593   0.940071   0.440759   x 
            x  Ni          27         0.060308   0.065673   0.566439   x 
            x  Ni          28         0.066225   0.191668   0.442081   x 
            x  Ni          29         0.059711   0.317512   0.565287   x 
            x  Ni          30         0.055862   0.444544   0.439980   x 
            x  Ni          31         0.057444   0.569137   0.564571   x 
            x  Ni          32         0.055837   0.694215   0.439472   x 
            x  Ni          33         0.183269   0.940872   0.814889   x 
            x  Ni          34         0.307522   0.817077   0.814727   x 
            x  Ni          35         0.308009   0.940275   0.690018   x 
            x  Ni          36         0.181658   0.817279   0.689836   x 
            x  Ni          37         0.434709   0.941448   0.810703   x 
            x  Ni          38         0.554463   0.810117   0.811414   x 
            x  Ni          39         0.559119   0.939779   0.685692   x 
            x  Ni          40         0.431659   0.813395   0.689025   x 
            x  Ni          41         0.681574   0.936710   0.811091   x 
            x  Ni          42         0.808442   0.811582   0.810939   x 
            x  Ni          43         0.680624   0.813170   0.685919   x 
            x  Ni          44         0.933885   0.939919   0.813713   x 
            x  Ni          45         0.934001   0.195660   0.812370   x 
            x  Ni          46         0.937260   0.815664   0.688239   x 
            x  Ni          47         0.183015   0.191859   0.815095   x 
            x  Ni          48         0.308578   0.066096   0.816536   x 
            x  Ni          49         0.308571   0.192964   0.694402   x 
            x  Ni          50         0.182333   0.065038   0.692632   x 
            x  Ni          51         0.437925   0.191687   0.817801   x 
            x  Ni          52         0.684607   0.070470   0.688191   x 
            x  Ni          53         0.433631   0.068754   0.692159   x 
            x  Ni          54         0.683305   0.196186   0.812885   x 
            x  Ni          55         0.934881   0.319051   0.937136   x 
            x  Ni          56         0.810373   0.192834   0.687546   x 
            x  Ni          57         0.181663   0.441289   0.817273   x 
            x  Ni          58         0.306681   0.316843   0.817729   x 
            x  Ni          59         0.178665   0.316594   0.692215   x 
            x  Ni          60         0.559260   0.323737   0.815325   x 
            x  Ni          61         0.430540   0.319795   0.690300   x 
            x  Ni          62         0.684422   0.442846   0.811752   x 
            x  Ni          63         0.935514   0.317631   0.687317   x 
            x  Ni          64         0.808727   0.443450   0.683987   x 
            x  Ni          65         0.933066   0.445408   0.811191   x 
            x  Ni          66         0.183614   0.692721   0.815820   x 
            x  Ni          67         0.302245   0.564653   0.813609   x 
            x  Ni          68         0.303788   0.691340   0.687668   x 
            x  Ni          69         0.179030   0.567680   0.689468   x 
            x  Ni          70         0.428200   0.562362   0.687039   x 
            x  Ni          71         0.556210   0.563728   0.808639   x 
            x  Ni          72         0.427589   0.442413   0.566044   x 
            x  Ni          73         0.556972   0.562628   0.563219   x 
            x  Ni          74         0.682947   0.687878   0.810374   x 
            x  Ni          75         0.934401   0.569743   0.686007   x 
            x  Ni          76         0.685086   0.566064   0.683192   x 
            x  Ni          77         0.933259   0.688637   0.811494   x 
            x  Ni          78         0.811064   0.568127   0.556035   x 
            x  Ni          79         0.185099   0.941245   0.067502   x 
            x  Ni          80         0.307207   0.941227   0.939462   x 
            x  Ni          81         0.182054   0.816417   0.941503   x 
            x  Ni          82         0.431089   0.942196   0.065063   x 
            x  Ni          83         0.557186   0.814947   0.062667   x 
            x  Ni          84         0.560444   0.940554   0.937531   x 
            x  Ni          85         0.684661   0.939282   0.062492   x 
            x  Ni          86         0.810291   0.815813   0.065662   x 
            x  Ni          87         0.679901   0.810225   0.938250   x 
            x  Ni          88         0.937263   0.814348   0.937864   x 
            x  Ni          89         0.184941   0.193605   0.066995   x 
            x  Ni          90         0.309211   0.191589   0.939499   x 
            x  Ni          91         0.181860   0.067195   0.938965   x 
            x  Ni          92         0.434746   0.192064   0.060077   x 
            x  Ni          93         0.559645   0.068470   0.062288   x 
            x  Ni          94         0.688141   0.196625   0.067131   x 
            x  Ni          95         0.681664   0.067066   0.936748   x 
            x  Ni          96         0.807847   0.192751   0.936388   x 
            x  Ni          97         0.807872   0.065777   0.814821   x 
            x  Ni          98         0.931935   0.187734   0.063988   x 
            x  Ni          99         0.181406   0.445455   0.062309   x 
            x  Ni         100         0.307910   0.317816   0.064560   x 
            x  Ni         101         0.306673   0.442316   0.941139   x 
            x  Ni         102         0.180937   0.316532   0.941580   x 
            x  Ni         103         0.433971   0.444729   0.062163   x 
            x  Ni         104         0.562739   0.322407   0.065150   x 
            x  Ni         105         0.434483   0.319402   0.940692   x 
            x  Ni         106         0.685258   0.568530   0.939036   x 
            x  Ni         107         0.688149   0.324034   0.942368   x 
            x  Ni         108         0.933882   0.445422   0.067226   x 
            x  Ni         109         0.810136   0.446637   0.939442   x 
            x  Ni         110         0.306123   0.569269   0.064731   x 
            x  Ni         111         0.307272   0.693808   0.940823   x 
            x  Ni         112         0.179938   0.567892   0.939896   x 
            x  Ni         113         0.432834   0.693446   0.060898   x 
            x  Ni         114         0.558845   0.568962   0.065220   x 
            x  Ni         115         0.431352   0.567526   0.938242   x 
            x  Ni         116         0.814142   0.572244   0.067408   x 
            x  Ni         117         0.809358   0.691700   0.937446   x 
            x  Ni         118         0.935540   0.693467   0.067037   x 
            x  Ni         119         0.182920   0.940070   0.315033   x 
            x  Ni         120         0.309679   0.814518   0.315140   x 
            x  Ni         121         0.182092   0.817093   0.189248   x 
            x  Ni         122         0.439491   0.942912   0.317755   x 
            x  Ni         123         0.434178   0.815585   0.439651   x 
            x  Ni         124         0.558643   0.942335   0.188079   x 
            x  Ni         125         0.432531   0.817074   0.188661   x 
            x  Ni         126         0.681720   0.814028   0.189849   x 
            x  Ni         127         0.938156   0.819392   0.192453   x 
            x  Ni         128         0.309089   0.068901   0.315653   x 
            x  Ni         129         0.185374   0.068132   0.190615   x 
            x  Ni         130         0.430342   0.196716   0.318291   x 
            x  Ni         131         0.556673   0.195405   0.188470   x 
            x  Ni         132         0.432405   0.068022   0.187392   x 
            x  Ni         133         0.681846   0.192064   0.315750   x 
            x  Ni         134         0.682215   0.067804   0.188706   x 
            x  Ni         135         0.809506   0.061056   0.315794   x 
            x  Ni         136         0.933824   0.061471   0.188015   x 
            x  Ni         137         0.181186   0.445268   0.311881   x 
            x  Ni         138         0.302065   0.318684   0.311093   x 
            x  Ni         139         0.307534   0.442370   0.185513   x 
            x  Ni         140         0.432583   0.442351   0.313092   x 
            x  Ni         141         0.560257   0.443137   0.188137   x 
            x  Ni         142         0.434357   0.320034   0.188343   x 
            x  Ni         143         0.682195   0.441769   0.314597   x 
            x  Ni         144         0.811007   0.313303   0.313374   x 
            x  Ni         145         0.809883   0.441973   0.192573   x 
            x  Ni         146         0.936340   0.441228   0.315629   x 
            x  Ni         147         0.934442   0.313549   0.192285   x 
            x  Ni         148         0.305455   0.692261   0.188269   x 
            x  Ni         149         0.179386   0.567299   0.189913   x 
            x  Ni         150         0.431733   0.689051   0.313171   x 
            x  Ni         151         0.556350   0.566620   0.311300   x 
            x  Ni         152         0.557934   0.691827   0.187790   x 
            x  Ni         153         0.432195   0.566886   0.187273   x 
            x  Ni         154         0.683116   0.692579   0.315577   x 
            x  Ni         155         0.809017   0.568095   0.319357   x 
            x  Ni         156         0.687253   0.571046   0.192419   x 
            x  Ni         157         0.937596   0.694692   0.318844   x 
            x  Ni         158         0.935861   0.568609   0.194937   x 
            x  Ni         159         0.184590   0.939382   0.565823   x 
            x  Ni         160         0.308187   0.814528   0.562568   x 
            x  Ni         161         0.310457   0.940225   0.438074   x 
            x  Ni         162         0.182055   0.817781   0.439369   x 
            x  Ni         163         0.430658   0.943112   0.567038   x 
            x  Ni         164         0.554972   0.815066   0.564580   x 
            x  Ni         165         0.674042   0.943236   0.317064   x 
            x  Ni         166         0.430860   0.688250   0.564117   x 
            x  Ni         167         0.683659   0.943794   0.565904   x 
            x  Ni         168         0.811576   0.817769   0.561772   x 
            x  Ni         169         0.808957   0.823064   0.317089   x 
            x  Ni         170         0.678328   0.817751   0.439203   x 
            x  Ni         171         0.937992   0.062318   0.441684   x 
            x  Ni         172         0.938963   0.819981   0.439399   x 
            x  Ni         173         0.305090   0.065475   0.566516   x 
            x  Ni         174         0.298182   0.192594   0.440429   x 
            x  Ni         175         0.554084   0.195096   0.441237   x 
            x  Ni         176         0.431657   0.068748   0.441585   x 
            x  Ni         177         0.685613   0.317439   0.684859   x 
            x  Ni         178         0.815009   0.063411   0.568423   x 
            x  Ni         179         0.811182   0.189248   0.437130   x 
            x  Ni         180         0.680084   0.068629   0.440903   x 
            x  Ni         181         0.181146   0.444816   0.565005   x 
            x  Ni         182         0.302042   0.317694   0.565463   x 
            x  Ni         183         0.306352   0.449590   0.438983   x 
            x  Ni         184         0.554180   0.317288   0.559497   x 
            x  Ni         185         0.556756   0.074085   0.568750   x 
            x  Ni         186         0.684641   0.440202   0.557583   x 
            x  Ni         187         0.812449   0.318617   0.560763   x 
            x  Ni         188         0.681920   0.318912   0.436398   x 
            x  Ni         189         0.938668   0.318280   0.438612   x 
            x  Ni         190         0.181068   0.694309   0.562485   x 
            x  Ni         191         0.308851   0.687685   0.436093   x 
            x  Ni         192         0.179772   0.568948   0.435768   x 
            x  Ni         193         0.557158   0.691647   0.439373   x 
            x  Ni         194         0.684529   0.690441   0.558571   x 
            x  Ni         195         0.938324   0.566593   0.439023   x 
            xxxxxxxxxxxxxxxxxxxxxxxxxxxxxxxxxxxxxxxxxxxxxxxxxxxxxxxxxxxx
 
 
                         No user defined ionic velocities
 
                           -------------------------------
                                   Details of Species
                           -------------------------------
 
                               Mass of species in AMU
                                    Al   26.9815400
                                    Ni   58.6934000
 
                          Electric Quadrupole Moment (Barn)
                                    Al    0.1466000 Isotope 27
                                    Ni    0.1620000 Isotope 61
 
                          Files used for pseudopotentials:
                                    Al 3|2.2|2.2|1.4|4|5|5|30:31:32U2U2
                                    Ni 3|2.4|2.4|1.0|8|9|10|40:41:32U2U2(qc=5.5)
 
                           -------------------------------
                              k-Points For BZ Sampling
                           -------------------------------
                       MP grid size for SCF calculation is  1  1  1
                            with an offset of   0.000  0.000  0.000
                       Number of kpoints used =             1
 
                           -------------------------------
                               Symmetry and Constraints
                           -------------------------------
 
                      Maximum deviation from symmetry =  0.00000         ANG
 
                      Number of symmetry operations   =           1
                      Number of ionic constraints     =           3
                      Point group of crystal =     1: C1, 1, 1
                      Space group of crystal =     1: P1, P 1
 
             Set iprint > 1 for details on symmetry rotations/translations
 
                         Centre of mass is constrained
             Set iprint > 1 for details of linear ionic constraints
 
                         Number of cell constraints= 6
                         Cell constraints are:  0 0 0 0 0 0
 
                         External pressure/stress (GPa)
                          0.00000   0.00000   0.00000
                                    0.00000   0.00000
                                              0.00000
 
+---------------- MEMORY AND SCRATCH DISK ESTIMATES PER PROCESS --------------+
|                                                     Memory          Disk    |
| Baseline code, static data and system overhead      855.0 MB         0.0 MB |
| BLAS internal memory storage                          0.0 MB         0.0 MB |
| Model and support data                              335.5 MB         0.0 MB |
| Electronic energy minimisation requirements          68.2 MB         0.0 MB |
| Force calculation requirements                        1.7 MB         0.0 MB |
|                                               ----------------------------- |
| Approx. total storage required per process         1258.8 MB         0.0 MB |
|                                                                             |
| Requirements will fluctuate during execution and may exceed these estimates |
+-----------------------------------------------------------------------------+
Calculating approximate eigenstates for fixed initial Hamiltonian
Cut-off for approx. calculation is  550.359 eV
Resetting cut-off to  900.000 eV
Calculating total energy with cut-off of  900.000 eV.
------------------------------------------------------------------------ <-- SCF
SCF loop      Energy           Fermi           Energy gain       Timer   <-- SCF
                               energy          per atom          (sec)   <-- SCF
------------------------------------------------------------------------ <-- SCF
Initial  -2.75644524E+005  0.00000000E+000                      1405.23  <-- SCF
      1  -2.75113252E+005  3.15267356E+000  -2.08341955E+000    1437.78  <-- SCF
      2  -2.75269964E+005  3.15355388E+000   6.14557097E-001    1471.79  <-- SCF
      3  -2.76794361E+005  9.06217495E+000   5.97802493E+000    1528.10  <-- SCF
      4  -2.76880175E+005  9.02352827E+000   3.36525174E-001    1570.34  <-- SCF
      5  -2.75258198E+005  6.71469682E+000  -6.36069098E+000    1622.84  <-- SCF
      6  -2.75542334E+005  6.59909664E+000   1.11425603E+000    1661.61  <-- SCF
      7  -2.75238218E+005  4.94953920E+000  -1.19260921E+000    1702.84  <-- SCF
      8  -2.75180748E+005  4.40939251E+000  -2.25375083E-001    1760.03  <-- SCF
      9  -2.75170338E+005  4.33553837E+000  -4.08201846E-002    1799.00  <-- SCF
     10  -2.75172724E+005  4.38449042E+000   9.35492176E-003    1846.39  <-- SCF
     11  -2.75168197E+005  4.36685442E+000  -1.77530809E-002    1880.89  <-- SCF
     12  -2.75166886E+005  4.36655436E+000  -5.14165674E-003    1923.64  <-- SCF
     13  -2.75171215E+005  4.40568794E+000   1.69770451E-002    1979.87  <-- SCF
     14  -2.75167513E+005  4.36874125E+000  -1.45187672E-002    2029.47  <-- SCF
     15  -2.75165789E+005  4.35334364E+000  -6.75927736E-003    2084.72  <-- SCF
     16  -2.75166240E+005  4.35283998E+000   1.76815352E-003    2141.97  <-- SCF
     17  -2.75166000E+005  4.34604236E+000  -9.40033557E-004    2180.58  <-- SCF
     18  -2.75165552E+005  4.34156746E+000  -1.75791787E-003    2215.25  <-- SCF
     19  -2.75165529E+005  4.34243330E+000  -8.94337576E-005    2252.92  <-- SCF
     20  -2.75165576E+005  4.34493142E+000   1.83223845E-004    2301.80  <-- SCF
     21  -2.75165514E+005  4.34574410E+000  -2.43453395E-004    2342.51  <-- SCF
     22  -2.75165502E+005  4.34575846E+000  -4.78597959E-005    2386.93  <-- SCF
     23  -2.75165503E+005  4.34516195E+000   3.82269769E-006    2432.48  <-- SCF
     24  -2.75165502E+005  4.34335328E+000  -3.32727572E-006    2474.16  <-- SCF
     25  -2.75165500E+005  4.34298431E+000  -5.50198396E-006    2511.25  <-- SCF
     26  -2.75165501E+005  4.34345958E+000   1.94859114E-006    2557.12  <-- SCF
     27  -2.75165499E+005  4.34415077E+000  -6.48360531E-006    2593.21  <-- SCF
     28  -2.75165499E+005  4.34413149E+000  -1.67570693E-006    2629.19  <-- SCF
     29  -2.75165499E+005  4.34416818E+000   3.86237700E-007    2654.98  <-- SCF
     30  -2.75165499E+005  4.34401518E+000  -3.64414471E-007    2696.20  <-- SCF
------------------------------------------------------------------------ <-- SCF
 
Final energy, E             =  -275160.3851682     eV
Final free energy (E-TS)    =  -275165.4987622     eV
(energies not corrected for finite basis set)
 
NB est. 0K energy (E-0.5TS)      =  -275162.9419652     eV
 

Writing analysis data to castep.castep_bin

Writing model to castep.check
 
+---------------- MEMORY AND SCRATCH DISK ESTIMATES PER PROCESS --------------+
|                                                     Memory          Disk    |
| Model and support data                              346.2 MB         0.0 MB |
| Electronic energy minimisation requirements          68.2 MB         0.0 MB |
| Geometry minimisation requirements                   83.0 MB         0.0 MB |
|                                               ----------------------------- |
| Approx. total storage required per process          497.4 MB         0.0 MB |
|                                                                             |
| Requirements will fluctuate during execution and may exceed these estimates |
+-----------------------------------------------------------------------------+
 
 
 ************************************** Forces **************************************
 *                                                                                  *
 *                           Cartesian components (eV/A)                            *
 * -------------------------------------------------------------------------------- *
 *                         x                    y                    z              *
 *                                                                                  *
 * Al              1     -0.41852              0.03443              0.34841         *
 * Al              2     -0.11502              0.04841              0.10323         *
 * Al              3      0.04206             -0.08578             -0.13408         *
 * Al              4     -0.16165             -0.00301             -0.17205         *
 * Al              5      0.20352              0.06766              0.04693         *
 * Al              6     -0.10746              0.00943              0.08411         *
 * Al              7      0.03036              0.05009             -0.20745         *
 * Al              8     -0.09916              0.02228              0.05108         *
 * Al              9     -0.04467              0.06101              0.34122         *
 * Al             10     -0.07310             -0.20385             -0.07470         *
 * Al             11      0.00791              0.11899              0.01678         *
 * Al             12      0.03537             -0.10503              0.00101         *
 * Al             13      0.01950              0.09749              0.04774         *
 * Al             14     -0.25160             -0.11531              0.08406         *
 * Al             15     -0.10942              0.00907             -0.01005         *
 * Al             16     -0.10884              0.03197              0.10372         *
 * Al             17      0.14192             -0.17863             -0.01599         *
 * Al             18      0.05172              0.06958              0.17796         *
 * Al             19      0.15157             -0.16015             -0.07415         *
 * Al             20     -0.14052             -0.22663             -0.03427         *
 * Al             21      0.00793              0.06989              0.03643         *
 * Al             22     -0.13293             -0.07164              0.04559         *
 * Al             23      0.05045              0.07249              0.02419         *
 * Al             24     -0.07853              0.21512             -0.23947         *
 * Al             25      0.12000              0.25148             -0.01967         *
 * Al             26      0.00864             -0.01103              0.01830         *
 * Al             27      0.01859              0.01639             -0.01182         *
 * Al             28      0.20656              0.06075              0.07447         *
 * Al             29     -0.12276             -0.09863             -0.01807         *
 * Al             30     -0.60177             -0.00164             -0.18253         *
 * Al             31      0.05635              0.07122              0.08833         *
 * Al             32     -0.39015              0.37568              0.13660         *
 * Al             33     -0.22056             -0.10767              0.04953         *
 * Al             34      0.12647             -0.06524             -0.02801         *
 * Al             35     -0.07598             -0.10125              0.10503         *
 * Al             36      0.21787             -0.06458              0.53271         *
 * Al             37     -0.21534              0.01811             -0.03191         *
 * Al             38     -0.04611              0.05070             -0.05869         *
 * Al             39      0.02744             -0.06145              0.13076         *
 * Al             40     -0.16515             -0.07725              0.01638         *
 * Al             41     -0.00836              0.14749             -0.10991         *
 * Al             42      0.30973             -0.04684             -0.20526         *
 * Al             43      0.11493             -0.02280              0.18793         *
 * Al             44     -0.27320              0.23347              0.06251         *
 * Al             45     -0.19985             -0.12321              0.03931         *
 * Al             46      0.10089              0.16237              0.10177         *
 * Al             47     -0.19530              0.01893             -0.15583         *
 * Al             48      0.08061             -0.07612              0.08642         *
 * Al             49     -0.18706             -0.24093             -0.29286         *
 * Al             50     -0.10153              0.20802             -0.01451         *
 * Al             51     -0.01649              0.02363             -0.11414         *
 * Al             52     -0.01091              0.06141              0.11294         *
 * Al             53     -0.01798              0.01256             -0.14721         *
 * Al             54      0.08933             -0.00483             -0.32039         *
 * Al             55     -0.09317             -0.06422              0.09901         *
 * Al             56     -0.25457             -0.11362             -0.08482         *
 * Al             57     -0.12984             -0.01326              0.23803         *
 * Al             58     -0.15477              0.12397              0.07934         *
 * Al             59     -0.33742              0.01803              0.04449         *
 * Al             60      0.06058             -0.33495             -0.20360         *
 * Ni              1      0.02720             -0.03441             -0.13867         *
 * Ni              2      0.31366              0.06330              0.02240         *
 * Ni              3      0.82297             -0.08453             -0.26018         *
 * Ni              4     -0.03931              0.23060             -0.09594         *
 * Ni              5      0.18300              0.01057             -0.26444         *
 * Ni              6      0.30320             -0.01466              0.03048         *
 * Ni              7      0.21452              0.01911             -0.13119         *
 * Ni              8      0.34393             -0.07665              0.17251         *
 * Ni              9      0.40313             -0.37695              0.03195         *
 * Ni             10      0.20459             -0.08266             -0.16497         *
 * Ni             11      0.01341              0.09502              0.08122         *
 * Ni             12      0.25233              0.40910              0.00377         *
 * Ni             13     -0.18311             -0.05938              0.04863         *
 * Ni             14      0.02502             -0.01740              0.07903         *
 * Ni             15      0.15009             -0.05288              0.16182         *
 * Ni             16      0.25835              0.04039             -0.19738         *
 * Ni             17      0.57402             -0.09380              0.08728         *
 * Ni             18      0.82011              0.01874             -0.02702         *
 * Ni             19      0.43458              0.06035             -0.15292         *
 * Ni             20     -0.05496             -0.14891             -0.17737         *
 * Ni             21      0.13432              0.00597              0.07203         *
 * Ni             22      0.22354              0.02642              0.09968         *
 * Ni             23      0.22636             -0.25974             -0.00943         *
 * Ni             24      0.10111             -0.03879              0.03539         *
 * Ni             25      0.79097              0.08299             -0.06308         *
 * Ni             26      0.95580             -0.00646              0.02717         *
 * Ni             27     -0.08466              0.10799              0.18057         *
 * Ni             28      0.42659             -0.00729              0.05474         *
 * Ni             29      0.23517             -0.09378              0.05560         *
 * Ni             30      0.42512              0.00091             -0.26791         *
 * Ni             31      0.58762             -0.26730              0.01569         *
 * Ni             32      0.82800             -0.07206             -0.19514         *
 * Ni             33      0.04928              0.03200              0.11994         *
 * Ni             34     -0.06665             -0.03923             -0.03883         *
 * Ni             35     -0.08569              0.09116              0.09175         *
 * Ni             36      0.12314             -0.13999              0.04672         *
 * Ni             37     -0.15620             -0.00032             -0.10885         *
 * Ni             38     -0.00452              0.05209              0.20011         *
 * Ni             39     -0.26269             -0.00491              0.00461         *
 * Ni             40     -0.03842              0.04326             -0.08732         *
 * Ni             41     -0.05559             -0.12923              0.07770         *
 * Ni             42      0.08883             -0.13094              0.11357         *
 * Ni             43     -0.01145              0.22650             -0.04551         *
 * Ni             44     -0.01257             -0.24926              0.13514         *
 * Ni             45     -0.05956              0.16746              0.30448         *
 * Ni             46     -0.33718              0.01671              0.22419         *
 * Ni             47     -0.07834             -0.06118              0.18348         *
 * Ni             48     -0.09281              0.09761             -0.26313         *
 * Ni             49     -0.13534             -0.07019              0.07360         *
 * Ni             50      0.12440             -0.04991              0.00991         *
 * Ni             51      0.07617             -0.05817              0.20968         *
 * Ni             52     -0.05223              0.10880             -0.11541         *
 * Ni             53      0.05754              0.08581             -0.05805         *
 * Ni             54      0.07768             -0.38213              0.09245         *
 * Ni             55     -0.02437             -0.02666              0.03249         *
 * Ni             56      0.08979             -0.07926              0.09301         *
 * Ni             57     -0.25213             -0.03081              0.09535         *
 * Ni             58      0.06509              0.01884             -0.09487         *
 * Ni             59      0.06375              0.05966              0.22687         *
 * Ni             60     -0.05687             -0.01412             -0.06135         *
 * Ni             61     -0.03566              0.04144              0.15665         *
 * Ni             62      0.02450             -0.06802              0.06116         *
 * Ni             63     -0.05693             -0.00783              0.22267         *
 * Ni             64      0.02450             -0.16815             -0.09795         *
 * Ni             65      0.12914             -0.09505              0.10224         *
 * Ni             66     -0.12419              0.08445             -0.00808         *
 * Ni             67     -0.03700             -0.10088              0.09230         *
 * Ni             68     -0.16981              0.20429             -0.04395         *
 * Ni             69      0.13598              0.04466              0.11023         *
 * Ni             70      0.00427             -0.06015              0.11070         *
 * Ni             71      0.25439              0.12739              0.14800         *
 * Ni             72     -0.10627              0.01058             -0.09575         *
 * Ni             73      0.01223              0.06805              0.23976         *
 * Ni             74      0.24151              0.25846             -0.00745         *
 * Ni             75     -0.11674              0.11507              0.26574         *
 * Ni             76      0.21047             -0.12514             -0.06334         *
 * Ni             77     -0.19191              0.17400              0.00558         *
 * Ni             78     -0.28359             -0.03253              0.12987         *
 * Ni             79     -0.08918              0.04480             -0.12594         *
 * Ni             80     -0.20734             -0.03528             -0.24824         *
 * Ni             81      0.13509              0.00693             -0.07527         *
 * Ni             82      0.19980              0.07848              0.30777         *
 * Ni             83      0.09416             -0.04918              0.09681         *
 * Ni             84      0.08855              0.07616              0.15131         *
 * Ni             85     -0.09406              0.16083             -0.00676         *
 * Ni             86      0.16023              0.07394             -0.13739         *
 * Ni             87     -0.02276              0.06612             -0.10895         *
 * Ni             88     -0.46841              0.05673              0.03053         *
 * Ni             89     -0.01545              0.01327             -0.09795         *
 * Ni             90     -0.11777             -0.00361              0.06502         *
 * Ni             91     -0.05085             -0.02583             -0.03002         *
 * Ni             92     -0.03336             -0.01345              0.12699         *
 * Ni             93      0.03656             -0.09221              0.01168         *
 * Ni             94      0.08440              0.02422              0.25291         *
 * Ni             95      0.01287              0.06708              0.01262         *
 * Ni             96      0.02817             -0.05736              0.01505         *
 * Ni             97     -0.22214              0.13217             -0.11982         *
 * Ni             98      0.05393              0.03897              0.06144         *
 * Ni             99     -0.13761             -0.01209             -0.06568         *
 * Ni            100      0.08543             -0.00535             -0.20008         *
 * Ni            101     -0.25722              0.07929              0.10419         *
 * Ni            102      0.19985              0.05190             -0.07339         *
 * Ni            103     -0.17400             -0.20850              0.25766         *
 * Ni            104     -0.31983              0.21480              0.12523         *
 * Ni            105     -0.14110             -0.03159             -0.05360         *
 * Ni            106     -0.03753             -0.04862             -0.08095         *
 * Ni            107     -0.12744             -0.00806             -0.08097         *
 * Ni            108     -0.04386             -0.22466             -0.11958         *
 * Ni            109      0.21651             -0.06980              0.02352         *
 * Ni            110      0.20430             -0.17372             -0.13403         *
 * Ni            111     -0.10763              0.04605              0.00755         *
 * Ni            112      0.13996             -0.07410             -0.22063         *
 * Ni            113     -0.00101              0.08869              0.14810         *
 * Ni            114     -0.21777             -0.06486              0.08301         *
 * Ni            115     -0.11158              0.07558              0.11822         *
 * Ni            116     -0.05118             -0.02874              0.13892         *
 * Ni            117      0.25122              0.07999             -0.07663         *
 * Ni            118     -0.05045              0.18942             -0.19621         *
 * Ni            119     -0.06146             -0.13797             -0.01936         *
 * Ni            120      0.02894              0.03909              0.10902         *
 * Ni            121     -0.00193              0.08073             -0.20128         *
 * Ni            122     -0.06056             -0.02826              0.10226         *
 * Ni            123     -0.12378             -0.03399             -0.02483         *
 * Ni            124     -0.12686             -0.05058             -0.24499         *
 * Ni            125     -0.05265             -0.09599             -0.10688         *
 * Ni            126      0.02756              0.13820             -0.13295         *
 * Ni            127     -0.46386              0.06547             -0.09126         *
 * Ni            128      0.09225              0.23161              0.27954         *
 * Ni            129      0.00545             -0.05317             -0.12943         *
 * Ni            130     -0.04535             -0.05918              0.00721         *
 * Ni            131     -0.02454              0.04074             -0.15498         *
 * Ni            132     -0.00988             -0.07025             -0.20068         *
 * Ni            133      0.10273              0.15270              0.07540         *
 * Ni            134      0.17096             -0.07512             -0.15013         *
 * Ni            135     -0.12123              0.08491              0.16321         *
 * Ni            136     -0.28992              0.15961             -0.37386         *
 * Ni            137     -0.13736              0.04350              0.08658         *
 * Ni            138     -0.20333             -0.00817             -0.21841         *
 * Ni            139      0.07291              0.07735              0.01585         *
 * Ni            140     -0.00178             -0.04449             -0.21615         *
 * Ni            141     -0.12427              0.12141              0.26999         *
 * Ni            142      0.03232              0.17788             -0.20026         *
 * Ni            143     -0.02369              0.24068             -0.18076         *
 * Ni            144      0.05823             -0.00508              0.02290         *
 * Ni            145     -0.03691             -0.13178             -0.29488         *
 * Ni            146     -0.15078              0.09670             -0.25342         *
 * Ni            147     -0.09632             -0.04406             -0.18202         *
 * Ni            148      0.27396             -0.06725              0.02333         *
 * Ni            149      0.09565             -0.06637             -0.00983         *
 * Ni            150     -0.04543              0.04749              0.01247         *
 * Ni            151      0.11796              0.00704             -0.34296         *
 * Ni            152     -0.29383             -0.24906              0.01127         *
 * Ni            153      0.10005              0.12919             -0.17391         *
 * Ni            154     -0.13879             -0.07974             -0.01328         *
 * Ni            155      0.04478             -0.16253              0.00185         *
 * Ni            156     -0.16780              0.01530              0.23118         *
 * Ni            157     -0.27259             -0.08289             -0.17024         *
 * Ni            158     -0.31193              0.01189             -0.33958         *
 * Ni            159     -0.05372             -0.15992              0.18116         *
 * Ni            160     -0.00490              0.05967              0.11402         *
 * Ni            161      0.10359             -0.06684              0.13322         *
 * Ni            162      0.11258             -0.00111              0.05862         *
 * Ni            163     -0.05951             -0.12283             -0.02699         *
 * Ni            164      0.20574             -0.07472             -0.01243         *
 * Ni            165     -0.06345             -0.03314             -0.02788         *
 * Ni            166      0.03205              0.17770             -0.15669         *
 * Ni            167     -0.17302             -0.09920              0.08824         *
 * Ni            168     -0.21562             -0.01526              0.03854         *
 * Ni            169     -0.04365              0.01237              0.07089         *
 * Ni            170      0.11699              0.04307              0.17682         *
 * Ni            171     -0.38244              0.08573              0.01328         *
 * Ni            172     -0.70077             -0.21293             -0.07166         *
 * Ni            173     -0.07354             -0.07728              0.02359         *
 * Ni            174     -0.13285             -0.14504             -0.23876         *
 * Ni            175     -0.08783              0.09531             -0.03214         *
 * Ni            176     -0.16777             -0.15988             -0.16285         *
 * Ni            177      0.07521              0.06096              0.00413         *
 * Ni            178      0.25004             -0.23084             -0.02277         *
 * Ni            179     -0.07106              0.14475             -0.07557         *
 * Ni            180      0.14455             -0.02689             -0.15446         *
 * Ni            181     -0.22038              0.17998              0.08966         *
 * Ni            182      0.27169              0.00711              0.09067         *
 * Ni            183      0.02710              0.09189             -0.06689         *
 * Ni            184      0.07315             -0.06537              0.06022         *
 * Ni            185      0.05591             -0.01996              0.15844         *
 * Ni            186      0.10983              0.00240              0.13071         *
 * Ni            187     -0.17680              0.11568              0.12352         *
 * Ni            188      0.15575             -0.28662              0.11254         *
 * Ni            189     -0.09664              0.02429             -0.04944         *
 * Ni            190     -0.12508              0.02791             -0.03742         *
 * Ni            191      0.02197              0.12270             -0.02493         *
 * Ni            192     -0.13561              0.02175              0.05423         *
 * Ni            193     -0.27939              0.00428              0.15043         *
 * Ni            194     -0.30072              0.12038             -0.08281         *
 * Ni            195     -0.40507              0.10537             -0.16074         *
 *                                                                                  *
 ************************************************************************************
 LBFGS: finished iteration     0 with enthalpy= -2.75165499E+005 eV
  
 +-----------+-----------------+-----------------+------------+-----+ <-- LBFGS
 | Parameter |      value      |    tolerance    |    units   | OK? | <-- LBFGS
 +-----------+-----------------+-----------------+------------+-----+ <-- LBFGS
 |  dE/ion   |   0.000000E+000 |   2.000000E-005 |         eV | No  | <-- LBFGS
 |  |F|max   |   9.562119E-001 |   5.000000E-002 |       eV/A | No  | <-- LBFGS
 |  |dR|max  |   0.000000E+000 |   1.000000E-003 |          A | No  | <-- LBFGS
 +-----------+-----------------+-----------------+------------+-----+ <-- LBFGS
  

================================================================================
 Starting LBFGS iteration          1 ...
================================================================================
  
 +------------+-------------+-------------+-----------------+ <-- min LBFGS
 |    Step    |   lambda    |   F.delta'  |    enthalpy     | <-- min LBFGS
 +------------+-------------+-------------+-----------------+ <-- min LBFGS
 |  previous  |    0.000000 |    2.410510 |  -275165.498762 | <-- min LBFGS
 +------------+-------------+-------------+-----------------+ <-- min LBFGS
  

--------------------------------------------------------------------------------
 LBFGS: starting iteration         1 with trial guess (lambda=  1.000000)
--------------------------------------------------------------------------------
 
                           -------------------------------
                                     Cell Contents
                           -------------------------------
 
            xxxxxxxxxxxxxxxxxxxxxxxxxxxxxxxxxxxxxxxxxxxxxxxxxxxxxxxxxxxxxxxxx
            x  Element         Atom        Fractional coordinates of atoms  x
            x                 Number           u          v          w      x
            x---------------------------------------------------------------x
            x  Al                1         0.946085   0.692880   0.560956   x
            x  Al                2         0.670780   0.562627   0.436557   x
            x  Al                3         0.808367   0.698131   0.435036   x
            x  Al                4         0.421250   0.684703   0.808884   x
            x  Al                5         0.443875   0.560701   0.438746   x
            x  Al                6         0.420850   0.325116   0.439944   x
            x  Al                7         0.560689   0.687751   0.682835   x
            x  Al                8         0.300232   0.572823   0.562561   x
            x  Al                9         0.940123   0.442556   0.566269   x
            x  Al               10         0.810611   0.438659   0.432940   x
            x  Al               11         0.557950   0.202059   0.692397   x
            x  Al               12         0.422699   0.189705   0.565288   x
            x  Al               13         0.181597   0.328060   0.439422   x
            x  Al               14         0.944434   0.938361   0.563048   x
            x  Al               15         0.690415   0.193574   0.558293   x
            x  Al               16         0.556478   0.944041   0.451193   x
            x  Al               17         0.182209   0.055939   0.441330   x
            x  Al               18         0.183410   0.190909   0.575008   x
            x  Al               19         0.815549   0.696185   0.199619   x
            x  Al               20         0.307923   0.564589   0.308062   x
            x  Al               21         0.177684   0.697145   0.313701   x
            x  Al               22         0.683307   0.318234   0.192864   x
            x  Al               23         0.554880   0.319818   0.318315   x
            x  Al               24         0.176901   0.326432   0.183847   x
            x  Al               25         0.942445   0.187619   0.322330   x
            x  Al               26         0.810704   0.185021   0.197110   x
            x  Al               27         0.554837   0.073736   0.310986   x
            x  Al               28         0.317325   0.195146   0.188345   x
            x  Al               29         0.179119   0.189505   0.312705   x
            x  Al               30         0.945851   0.942471   0.316121   x
            x  Al               31         0.935465   0.194959   0.558936   x
            x  Al               32         0.802947   0.068795   0.057650   x
            x  Al               33         0.799716   0.937557   0.193700   x
            x  Al               34         0.554985   0.812671   0.311153   x
            x  Al               35         0.310538   0.942890   0.201917   x
            x  Al               36         0.936469   0.568817   0.938630   x
            x  Al               37         0.805502   0.562895   0.810753   x
            x  Al               38         0.686492   0.691059   0.066489   x
            x  Al               39         0.559528   0.684290   0.934535   x
            x  Al               40         0.176495   0.687212   0.064883   x
            x  Al               41         0.689175   0.455105   0.067949   x
            x  Al               42         0.819055   0.318044   0.059329   x
            x  Al               43         0.560069   0.445832   0.939082   x
            x  Al               44         0.942840   0.071694   0.929733   x
            x  Al               45         0.434415   0.062321   0.937217   x
            x  Al               46         0.565655   0.201854   0.942259   x
            x  Al               47         0.302838   0.065518   0.060591   x
            x  Al               48         0.943499   0.934233   0.065324   x
            x  Al               49         0.802245   0.930557   0.930992   x
            x  Al               50         0.434666   0.824216   0.936193   x
            x  Al               51         0.306880   0.817333   0.066483   x
            x  Al               52         0.805209   0.695349   0.682538   x
            x  Al               53         0.810014   0.320649   0.813355   x
            x  Al               54         0.561948   0.440135   0.683891   x
            x  Al               55         0.426494   0.443153   0.817438   x
            x  Al               56         0.298348   0.437502   0.690004   x
            x  Al               57         0.802587   0.935936   0.691746   x
            x  Al               58         0.800102   0.942054   0.440269   x
            x  Al               59         0.940621   0.069858   0.699148   x
            x  Al               60         0.565034   0.060269   0.809052   x
            x  Ni                1         0.058422   0.817237   0.815551   x
            x  Ni                2         0.057968   0.941150   0.690964   x
            x  Ni                3         0.058183   0.066210   0.816068   x
            x  Ni                4         0.057192   0.191302   0.692109   x
            x  Ni                5         0.056723   0.316781   0.816960   x
            x  Ni                6         0.057787   0.442725   0.691268   x
            x  Ni                7         0.057566   0.567935   0.814873   x
            x  Ni                8         0.058134   0.693107   0.690758   x
            x  Ni                9         0.058340   0.817649   0.064607   x
            x  Ni               10         0.058821   0.941946   0.940340   x
            x  Ni               11         0.060454   0.066761   0.064753   x
            x  Ni               12         0.058335   0.191600   0.940343   x
            x  Ni               13         0.056065   0.317995   0.062978   x
            x  Ni               14         0.056134   0.442621   0.938937   x
            x  Ni               15         0.054451   0.567202   0.063837   x
            x  Ni               16         0.056554   0.692633   0.939068   x
            x  Ni               17         0.055932   0.818129   0.314085   x
            x  Ni               18         0.058385   0.942818   0.189484   x
            x  Ni               19         0.058961   0.065578   0.315256   x
            x  Ni               20         0.059006   0.192808   0.188699   x
            x  Ni               21         0.059877   0.318425   0.314574   x
            x  Ni               22         0.053889   0.444109   0.188388   x
            x  Ni               23         0.055615   0.569178   0.314462   x
            x  Ni               24         0.055608   0.692911   0.189349   x
            x  Ni               25         0.057283   0.817139   0.565816   x
            x  Ni               26         0.056719   0.940070   0.440763   x
            x  Ni               27         0.060297   0.065687   0.566462   x
            x  Ni               28         0.066281   0.191667   0.442089   x
            x  Ni               29         0.059742   0.317500   0.565295   x
            x  Ni               30         0.055918   0.444544   0.439945   x
            x  Ni               31         0.057521   0.569102   0.564573   x
            x  Ni               32         0.055946   0.694206   0.439446   x
            x  Ni               33         0.183275   0.940876   0.814904   x
            x  Ni               34         0.307513   0.817071   0.814722   x
            x  Ni               35         0.307998   0.940287   0.690031   x
            x  Ni               36         0.181674   0.817261   0.689842   x
            x  Ni               37         0.434689   0.941448   0.810689   x
            x  Ni               38         0.554463   0.810124   0.811441   x
            x  Ni               39         0.559084   0.939778   0.685692   x
            x  Ni               40         0.431654   0.813401   0.689013   x
            x  Ni               41         0.681566   0.936693   0.811102   x
            x  Ni               42         0.808454   0.811565   0.810954   x
            x  Ni               43         0.680622   0.813200   0.685913   x
            x  Ni               44         0.933883   0.939886   0.813731   x
            x  Ni               45         0.933993   0.195682   0.812410   x
            x  Ni               46         0.937215   0.815666   0.688269   x
            x  Ni               47         0.183005   0.191851   0.815119   x
            x  Ni               48         0.308566   0.066109   0.816501   x
            x  Ni               49         0.308553   0.192955   0.694411   x
            x  Ni               50         0.182350   0.065032   0.692634   x
            x  Ni               51         0.437935   0.191679   0.817828   x
            x  Ni               52         0.684600   0.070484   0.688176   x
            x  Ni               53         0.433638   0.068766   0.692151   x
            x  Ni               54         0.683315   0.196136   0.812897   x
            x  Ni               55         0.934877   0.319048   0.937140   x
            x  Ni               56         0.810385   0.192824   0.687558   x
            x  Ni               57         0.181630   0.441285   0.817285   x
            x  Ni               58         0.306689   0.316845   0.817717   x
            x  Ni               59         0.178673   0.316602   0.692245   x
            x  Ni               60         0.559253   0.323735   0.815317   x
            x  Ni               61         0.430535   0.319800   0.690321   x
            x  Ni               62         0.684425   0.442837   0.811760   x
            x  Ni               63         0.935507   0.317630   0.687346   x
            x  Ni               64         0.808730   0.443428   0.683974   x
            x  Ni               65         0.933083   0.445396   0.811205   x
            x  Ni               66         0.183598   0.692732   0.815819   x
            x  Ni               67         0.302241   0.564640   0.813621   x
            x  Ni               68         0.303765   0.691367   0.687662   x
            x  Ni               69         0.179048   0.567686   0.689482   x
            x  Ni               70         0.428201   0.562354   0.687054   x
            x  Ni               71         0.556243   0.563744   0.808659   x
            x  Ni               72         0.427575   0.442415   0.566032   x
            x  Ni               73         0.556973   0.562637   0.563250   x
            x  Ni               74         0.682979   0.687912   0.810373   x
            x  Ni               75         0.934386   0.569758   0.686042   x
            x  Ni               76         0.685114   0.566048   0.683184   x
            x  Ni               77         0.933233   0.688660   0.811495   x
            x  Ni               78         0.811027   0.568123   0.556053   x
            x  Ni               79         0.185087   0.941251   0.067485   x
            x  Ni               80         0.307180   0.941223   0.939430   x
            x  Ni               81         0.182071   0.816418   0.941493   x
            x  Ni               82         0.431115   0.942206   0.065104   x
            x  Ni               83         0.557198   0.814940   0.062680   x
            x  Ni               84         0.560456   0.940564   0.937551   x
            x  Ni               85         0.684649   0.939303   0.062491   x
            x  Ni               86         0.810312   0.815823   0.065644   x
            x  Ni               87         0.679898   0.810234   0.938236   x
            x  Ni               88         0.937201   0.814356   0.937868   x
            x  Ni               89         0.184939   0.193606   0.066982   x
            x  Ni               90         0.309195   0.191588   0.939508   x
            x  Ni               91         0.181853   0.067192   0.938961   x
            x  Ni               92         0.434742   0.192062   0.060094   x
            x  Ni               93         0.559650   0.068458   0.062289   x
            x  Ni               94         0.688152   0.196628   0.067164   x
            x  Ni               95         0.681666   0.067074   0.936749   x
            x  Ni               96         0.807851   0.192743   0.936390   x
            x  Ni               97         0.807843   0.065795   0.814805   x
            x  Ni               98         0.931942   0.187739   0.063996   x
            x  Ni               99         0.181388   0.445453   0.062300   x
            x  Ni              100         0.307921   0.317815   0.064534   x
[...]
             Al 42 -- Ni 145                 0.17        2.59785
             Al 47 -- Ni 82                  0.15        2.59793
            Ni 38  -- Ni 43                  0.08        2.59794
             Al 40 -- Ni 111                 0.18        2.59794
            Ni 71  -- Ni 106                 0.01        2.59828
             Al 37 -- Ni 117                 0.17        2.59850
            Ni 37  -- Ni 80                  0.00        2.59859
            Ni 94  -- Ni 96                  0.02        2.59861
            Ni 190 -- Ni 191                 0.05        2.59879
             Al 9  -- Ni 195                 0.17        2.59882
            Ni 69  -- Ni 190                 0.05        2.59886
            Ni 60  -- Ni 107                 0.05        2.59916
             Al 54 -- Ni 71                  0.20        2.59919
             Al 52 -- Ni 78                  0.19        2.59926
            Ni 54  -- Ni 56                  0.11        2.59953
            Ni 179 -- Ni 187                 0.04        2.59973
            Ni 86  -- Ni 126                 0.04        2.59990
            Ni 127 -- Ni 169                -0.02        2.60003
             Al 7  -- Ni 40                  0.17        2.60014
            Ni 27  -- Ni 159                 0.09        2.60016
             Al 45 -- Al 47                  0.26        2.60035
             Al 23 -- Ni 133                 0.14        2.60051
             Al 19 -- Ni 126                 0.18        2.60063
             Al 53 -- Ni 54                  0.20        2.60081
            Ni 144 -- Ni 189                 0.04        2.60103
            Ni 175 -- Ni 180                 0.09        2.60105
            Ni 73  -- Ni 186                 0.10        2.60132
            Ni 134 -- Ni 165                 0.02        2.60145
            Ni 89  -- Ni 91                  0.07        2.60171
            Ni 180 -- Ni 185                 0.04        2.60185
            Ni 108 -- Ni 147                 0.09        2.60193
             Al 22 -- Al 23                  0.25        2.60195
            Ni 137 -- Ni 139                -0.01        2.60218
            Ni 41  -- Ni 42                  0.01        2.60220
             Al 31 -- Ni 56                  0.17        2.60235
            Ni 57  -- Ni 69                  0.05        2.60256
            Ni 13  -- Ni 99                  0.04        2.60285
            Ni 85  -- Ni 87                  0.06        2.60290
            Ni 48  -- Ni 51                  0.06        2.60322
            Ni 82  -- Ni 93                  0.08        2.60326
             Al 57 -- Ni 44                  0.18        2.60331
            Ni 171 -- Ni 179                 0.03        2.60340
            Ni 82  -- Ni 83                  0.11        2.60349
             Al 40 -- Ni 148                 0.16        2.60355
            Ni 18  -- Ni 136                 0.06        2.60366
            Ni 103 -- Ni 141                 0.07        2.60368
            Ni 46  -- Ni 168                -0.05        2.60370
            Ni 109 -- Ni 116                 0.07        2.60416
            Ni 167 -- Ni 178                 0.06        2.60494
            Ni 174 -- Ni 182                -0.01        2.60509
             Al 36 -- Ni 65                  0.16        2.60524
             Al 9  -- Ni 187                 0.19        2.60542
             Al 60 -- Ni 54                  0.18        2.60555
             Al 28 -- Ni 128                 0.16        2.60569
             Al 57 -- Ni 46                  0.18        2.60582
            Ni 164 -- Ni 167                 0.04        2.60609
            Ni 133 -- Ni 175                 0.05        2.60609
            Ni 167 -- Ni 185                 0.08        2.60639
            Ni 73  -- Ni 193                 0.06        2.60664
             Al 37 -- Ni 77                  0.15        2.60689
             Al 23 -- Ni 142                 0.15        2.60691
             Al 19 -- Ni 156                 0.17        2.60745
             Al 9  -- Ni 189                 0.19        2.60771
             Al 34 -- Ni 124                 0.15        2.60808
            Ni 62  -- Ni 109                 0.05        2.60890
             Al 56 -- Ni 72                  0.16        2.60894
             Al 30 -- Ni 135                 0.15        2.60900
             Al 27 -- Ni 176                 0.16        2.60952
            Ni 126 -- Ni 169                 0.03        2.60970
            Ni 152 -- Ni 154                 0.06        2.60976
             Al 43 -- Al 55                  0.28        2.60980
             Al 20 -- Ni 192                 0.15        2.60986
             Al 31 -- Ni 178                 0.19        2.61020
             Al 44 -- Ni 96                  0.18        2.61025
            Ni 165 -- Ni 169                 0.07        2.61027
            Ni 94  -- Ni 104                 0.05        2.61057
            Ni 131 -- Ni 133                -0.00        2.61061
             Al 41 -- Ni 141                 0.17        2.61078
            Ni 130 -- Ni 142                -0.01        2.61088
            Ni 4   -- Ni 50                  0.03        2.61090
            Ni 130 -- Ni 174                 0.09        2.61110
            Ni 145 -- Ni 156                 0.07        2.61113
            Ni 72  -- Ni 184                 0.11        2.61121
             Al 52 -- Ni 75                  0.16        2.61136
             Al 45 -- Ni 90                  0.14        2.61138
             Al 6  -- Ni 174                 0.16        2.61142
            Ni 184 -- Ni 186                 0.13        2.61144
            Ni 35  -- Ni 53                  0.11        2.61157
            Ni 160 -- Ni 191                 0.12        2.61178
            Ni 55  -- Ni 96                  0.01        2.61263
            Ni 155 -- Ni 157                 0.01        2.61289
            Ni 26  -- Ni 27                  0.02        2.61300
             Al 55 -- Ni 71                  0.15        2.61310
            Ni 120 -- Ni 121                 0.01        2.61322
             Al 3  -- Ni 195                 0.15        2.61346
             Al 41 -- Al 43                  0.26        2.61365
             Al 27 -- Ni 180                 0.17        2.61426
            Ni 25  -- Ni 172                 0.01        2.61464
            Ni 131 -- Ni 134                 0.08        2.61486
             Al 5  -- Ni 150                 0.11        2.61497
            Ni 159 -- Ni 161                 0.05        2.61510
            Ni 49  -- Ni 51                  0.14        2.61515
            Ni 138 -- Ni 142                 0.07        2.61526
            Ni 176 -- Ni 185                 0.03        2.61530
             Al 10 -- Ni 78                  0.16        2.61534
            Ni 54  -- Ni 60                  0.06        2.61548
            Ni 15  -- Ni 16                  0.01        2.61609
            Ni 42  -- Ni 87                  0.03        2.61613
            Ni 3   -- Ni 12                  0.04        2.61613
             Al 33 -- Ni 127                 0.16        2.61633
            Ni 154 -- Ni 169                 0.04        2.61667
            Ni 9   -- Ni 127                 0.04        2.61702
             Al 10 -- Ni 195                 0.17        2.61761
             Al 5  -- Ni 166                 0.12        2.61772
             Al 24 -- Ni 20                  0.16        2.61788
            Ni 82  -- Ni 84                  0.03        2.61797
            Ni 6   -- Ni 75                  0.07        2.61818
             Al 8  -- Ni 72                  0.14        2.61851
            Ni 122 -- Ni 125                 0.04        2.61865
            Ni 135 -- Ni 136                -0.01        2.61866
            Ni 120 -- Ni 122                 0.10        2.61945
             Al 11 -- Ni 53                  0.14        2.61953
             Al 26 -- Al 32                  0.24        2.61969
             Al 41 -- Ni 107                 0.18        2.61974
            Ni 61  -- Ni 184                 0.01        2.61979
            Ni 138 -- Ni 140                 0.07        2.61995
             Al 56 -- Ni 70                  0.17        2.62102
             Al 54 -- Ni 70                  0.16        2.62141
            Ni 106 -- Ni 114                -0.06        2.62143
             Al 50 -- Al 51                  0.24        2.62151
            Ni 173 -- Ni 174                 0.00        2.62229
            Ni 68  -- Ni 70                  0.04        2.62251
            Ni 29  -- Ni 30                  0.01        2.62252
            Ni 67  -- Ni 111                 0.10        2.62263
            Ni 130 -- Ni 131                 0.04        2.62297
            Ni 145 -- Ni 155                 0.13        2.62387
             Al 6  -- Al 23                  0.34        2.62426
            Ni 67  -- Ni 68                  0.03        2.62427
            Ni 80  -- Ni 82                 -0.07        2.62444
            Ni 99  -- Ni 100                 0.06        2.62464
            Ni 151 -- Ni 193                -0.01        2.62503
            Ni 42  -- Ni 43                 -0.01        2.62505
            Ni 179 -- Ni 189                 0.00        2.62524
            Ni 119 -- Ni 129                 0.05        2.62538
             Al 25 -- Ni 147                 0.17        2.62558
             Al 15 -- Ni 175                 0.16        2.62567
            Ni 20  -- Ni 21                 -0.04        2.62589
            Ni 119 -- Ni 128                 0.01        2.62594
            Ni 44  -- Ni 97                 -0.10        2.62599
             Al 28 -- Ni 89                  0.16        2.62601
             Al 40 -- Ni 81                  0.16        2.62618
             Al 35 -- Ni 82                  0.15        2.62659
             Al 50 -- Ni 113                 0.15        2.62701
            Ni 3   -- Ni 44                  0.00        2.62713
            Ni 135 -- Ni 165                 0.09        2.62742
             Al 49 -- Ni 95                  0.18        2.62892
            Ni 114 -- Ni 156                 0.00        2.62902
             Al 27 -- Ni 124                 0.16        2.62936
             Al 26 -- Ni 98                  0.14        2.63040
             Al 39 -- Ni 83                  0.13        2.63109
            Ni 49  -- Ni 173                 0.01        2.63123
            Ni 38  -- Ni 84                  0.07        2.63143
            Ni 38  -- Ni 39                  0.10        2.63159
             Al 32 -- Ni 136                 0.18        2.63194
            Ni 75  -- Ni 78                  0.05        2.63194
            Ni 177 -- Ni 184                 0.03        2.63200
            Ni 86  -- Ni 87                  0.05        2.63239
             Al 9  -- Ni 78                  0.17        2.63308
            Ni 92  -- Ni 142                 0.07        2.63325
             Al 30 -- Ni 169                 0.15        2.63336
            Ni 20  -- Ni 136                 0.12        2.63439
            Ni 122 -- Ni 128                 0.10        2.63446
            Ni 106 -- Ni 116                 0.00        2.63478
            Ni 60  -- Ni 177                 0.00        2.63558
            Ni 133 -- Ni 135                 0.09        2.63559
            Ni 122 -- Ni 132                 0.03        2.63656
            Ni 138 -- Ni 174                 0.01        2.63695
             Al 19 -- Ni 86                  0.17        2.63717
            Ni 21  -- Ni 28                 -0.02        2.63719
            Ni 19  -- Ni 28                 -0.01        2.63776
             Al 38 -- Al 39                  0.25        2.63853
             Al 47 -- Ni 132                 0.16        2.63933
            Ni 55  -- Ni 98                  0.04        2.64022
            Ni 71  -- Ni 115                -0.06        2.64031
             Al 55 -- Al 56                  0.24        2.64072
             Al 33 -- Ni 136                 0.13        2.64199
            Ni 51  -- Ni 58                  0.09        2.64258
            Ni 93  -- Ni 94                  0.06        2.64394
             Al 11 -- Ni 52                  0.14        2.64409
             Al 6  -- Ni 184                 0.20        2.64471
            Ni 37  -- Ni 84                 -0.06        2.64472
            Ni 41  -- Ni 95                  0.02        2.64528
            Ni 126 -- Ni 165                 0.03        2.64589
             Al 4  -- Ni 38                  0.16        2.64591
             Al 4  -- Ni 71                  0.15        2.64635
            Ni 41  -- Ni 97                  0.01        2.64635
             Al 12 -- Ni 184                 0.16        2.64668
            Ni 143 -- Ni 144                 0.02        2.64675
             Al 52 -- Ni 77                  0.15        2.64728
             Al 23 -- Ni 131                 0.10        2.64753
            Ni 59  -- Ni 181                 0.04        2.64924
             Al 58 -- Ni 171                 0.14        2.65027
            Ni 163 -- Ni 185                 0.07        2.65032
             Al 15 -- Ni 184                 0.15        2.65065
            Ni 157 -- Ni 169                 0.00        2.65331
            Ni 51  -- Ni 61                  0.07        2.65358
            Ni 174 -- Ni 176                 0.10        2.65360
            Ni 92  -- Ni 104                 0.10        2.65366
             Al 60 -- Ni 51                  0.15        2.65373
             Al 28 -- Ni 129                 0.15        2.65435
             Al 47 -- Ni 92                  0.13        2.65544
             Al 25 -- Ni 144                 0.15        2.65773
             Al 50 -- Ni 111                 0.15        2.66017
             Al 41 -- Ni 104                 0.14        2.66233
             Al 25 -- Al 26                  0.23        2.66258
             Al 28 -- Al 47                  0.22        2.66434
             Al 12 -- Ni 61                  0.15        2.66489
            Ni 45  -- Ni 97                  0.01        2.66591
            Ni 54  -- Ni 107                 0.03        2.66618
            Ni 39  -- Ni 52                  0.03        2.66834
             Al 7  -- Ni 70                  0.16        2.66900
            Ni 3   -- Ni 45                 -0.00        2.66944
             Al 45 -- Al 60                  0.23        2.67143
             Al 15 -- Ni 178                 0.17        2.67217
             Al 2  -- Ni 78                  0.13        2.67307
             Al 6  -- Al 12                  0.22        2.67588
             Al 11 -- Al 60                  0.21        2.68072
            Ni 41  -- Ni 52                  0.02        2.68083
             Al 1  -- Ni 168                 0.14        2.68120
            Ni 19  -- Ni 136                 0.07        2.68132
             Al 35 -- Al 51                  0.22        2.68137
            Ni 130 -- Ni 132                 0.02        2.68198
             Al 37 -- Al 52                  0.22        2.68205
             Al 40 -- Al 51                  0.22        2.68260
             Al 2  -- Ni 155                 0.12        2.68494
             Al 19 -- Al 38                  0.25        2.68509
            Ni 182 -- Ni 183                 0.01        2.68756
             Al 20 -- Al 21                  0.22        2.68774
             Al 22 -- Al 26                  0.20        2.68861
            Ni 28  -- Ni 189                 0.08        2.68921
             Al 58 -- Ni 172                 0.13        2.68924
             Al 6  -- Ni 175                 0.15        2.69161
             Al 1  -- Ni 78                  0.14        2.69293
             Al 1  -- Al 52                  0.23        2.69393
            Ni 138 -- Ni 183                 0.06        2.69518
             Al 8  -- Al 56                  0.21        2.69613
             Al 22 -- Al 41                  0.20        2.69745
            Ni 178 -- Ni 179                 0.06        2.69780
             Al 28 -- Al 29                  0.20        2.70483
             Al 11 -- Al 12                  0.21        2.70746
             Al 35 -- Ni 79                  0.11        2.70961
            Ni 94  -- Ni 95                  0.05        2.71042
            Ni 28  -- Ni 171                 0.08        2.71317
             Al 4  -- Al 39                  0.22        2.71774
             Al 5  -- Ni 191                 0.10        2.71945
             Al 36 -- Al 37                  0.21        2.72125
             Al 17 -- Al 29                  0.19        2.72514
             Al 25 -- Ni 135                 0.13        2.72517
             Al 4  -- Al 7                   0.21        2.72701
             Al 1  -- Al 3                   0.22        2.72883
             Al 35 -- Al 47                  0.20        2.73289
             Al 9  -- Al 10                  0.21        2.73619
             Al 39 -- Al 50                  0.18        2.74208
             Al 2  -- Al 10                  0.24        2.74414
             Al 11 -- Al 15                  0.20        2.74510
             Al 24 -- Al 29                  0.19        2.74865
             Al 30 -- Al 33                  0.20        2.74992
            Ni 178 -- Ni 180                 0.04        2.75030
             Al 31 -- Al 59                  0.19        2.75691
             Al 14 -- Al 58                  0.19        2.76074
             Al 5  -- Al 20                  0.18        2.76217
             Al 32 -- Al 33                  0.19        2.76495
             Al 25 -- Ni 136                 0.13        2.76807
             Al 13 -- Al 29                  0.16        2.76824
             Al 16 -- Al 27                  0.18        2.77688
             Al 5  -- Al 8                   0.17        2.77835
             Al 41 -- Al 42                  0.17        2.77844
             Al 4  -- Al 50                  0.17        2.77852
             Al 57 -- Al 59                  0.18        2.77937
             Al 32 -- Al 49                  0.22        2.78022
             Al 17 -- Al 18                  0.17        2.78355
             Al 30 -- Al 58                  0.19        2.78376
             Al 54 -- Al 55                  0.18        2.78762
             Al 26 -- Al 42                  0.16        2.79026
             Al 14 -- Al 59                  0.17        2.80229
             Al 2  -- Al 3                   0.16        2.80448
             Al 13 -- Al 18                  0.16        2.80683
             Al 16 -- Al 34                  0.16        2.80908
             Al 22 -- Al 42                  0.16        2.81008
             Al 32 -- Al 44                  0.18        2.81343
             Al 14 -- Al 57                  0.16        2.81388
             Al 24 -- Al 28                  0.16        2.81497
             Al 45 -- Al 46                  0.15        2.82648
             Al 33 -- Al 48                  0.15        2.85112
             Al 44 -- Al 48                  0.15        2.85301
             Al 46 -- Al 60                  0.13        2.89868
             Al 48 -- Al 49                  0.15        2.91419
             Al 44 -- Al 49                  0.12        2.93633
             Al 32 -- Al 48                  0.12        2.94872
======================================================================
 

Writing analysis data to castep.castep_bin

Writing model to castep.check
 
 A BibTeX formatted list of references used in this run has been written to 
 castep.bib
 
Initialisation time =     30.96 s
Calculation time    =   9598.11 s
Finalisation time   =      4.81 s
Total time          =   9633.88 s
Peak Memory Use     = 3945288 kB
 
Overall parallel efficiency rating: Satisfactory (65%)
 
Data was distributed by:-
G-vector (128-way); efficiency rating: Satisfactory (67%)
