 +-------------------------------------------------+
 |                                                 |
 |      CCC   AA    SSS  TTTTT  EEEEE  PPPP        |
 |     C     A  A  S       T    E      P   P       |
 |     C     AAAA   SS     T    EEE    PPPP        |
 |     C     A  A     S    T    E      P           |
 |      CCC  A  A  SSS     T    EEEEE  P           |
 |                                                 |
 +-------------------------------------------------+
 |                                                 |
 | Welcome to Academic Release CASTEP version 20.11|          
 | Ab Initio Total Energy Program                  |
 |                                                 |
 | Authors:                                        |
 | M. Segall, M. Probert, C. Pickard, P. Hasnip,   |
 | S. Clark, K. Refson, J. R. Yates, M. Payne      |
 |                                                 |
 | Contributors:                                   |
 | P. Lindan, P. Haynes, J. White, V. Milman,      |
 | N. Govind, M. Gibson, P. Tulip, V. Cocula,      |
 | B. Montanari, D. Quigley, M. Glover,            |
 | L. Bernasconi, A. Perlov, M. Plummer,           |
 | E. McNellis, J. Meyer, J. Gale, D. Jochym       |
 | J. Aarons, B. Walker, R. Gillen, D. Jones       |
 | T. Green, I. J. Bush, C. J. Armstrong,          |
 | E. J. Higgins, E. L. Brown, M. S. McFly,        |
 | J. Wilkins, B-C. Shih, P. J. P. Byrne,          |
 | R. J. Maurer, J. C. Womack, J. Dziedzic,        |
 | J. R. Kermode, A. Bartok-Partay                 |
 |                                                 |
 | Copyright (c) 2000 - 2020                       |
 |                                                 |
 |     Distributed under license from Cambridge    |
 |     Enterprise for academic use only.           |
 |                                                 |
 | Please cite                                     |
 |                                                 |
 |     "First principles methods using CASTEP"     |
 |                                                 |
 |         Zeitschrift fuer Kristallographie       |
 |           220(5-6) pp. 567-570 (2005)           |
 |                                                 |
 | S. J. Clark, M. D. Segall, C. J. Pickard,       |
 | P. J. Hasnip, M. J. Probert, K. Refson,         |
 | M. C. Payne                                     |
 |                                                 |
 |       in all publications arising from          |
 |              your use of CASTEP                 |
 |                                                 |
 +-------------------------------------------------+
 |                                                 |
 |              http://www.castep.org              |
 |                                                 |
 +-------------------------------------------------+
 
 
 
 Compiled for linux_x86_64_ifort on Wed, 22 Sep 2021 16:00:02 +0100
 from code version e772bf432+  HEAD  Sat Apr 3 17:41:32 2021 +0100
 Compiler: Intel Fortran 19.1.3.304; Optimisation: fast
 MATHLIBS: Intel MKL(2020.0.4) (LAPACK version 3.8.0)
 FFT Lib : mkl
 Fundamental constants values: CODATA 2014
 
 Run started: Tue, 11 Oct 2022 14:48:25 +0100
 
 Atomic calculation performed for Al: 1s2 2s2 2p6 3s2 3p1
 
 Converged in 52 iterations to an ae energy of -6606.982 eV
 
   ============================================================                
   | Pseudopotential Report - Date of generation 11-10-2022   |                
   ------------------------------------------------------------                
   | Element: Al Ionic charge:  3.00 Level of theory: RPBE    |                
   | Atomic Solver: Koelling-Harmon                           |                
   |                                                          |                
   |               Reference Electronic Structure             |                
   |         Orbital         Occupation         Energy        |                
   |            3s              2.000           -0.284        |                
   |            3p              1.000           -0.100        |                
   |                                                          |                
   |                 Pseudopotential Definition               |                
   |        Beta     l      e      Rc     scheme   norm       |                
   |          1      0   -0.284   2.192     qc      0         |                
   |          2      0    0.250   2.192     qc      0         |                
   |          3      1   -0.100   2.192     qc      0         |                
   |          4      1    0.250   2.192     qc      0         |                
   |          5      2    0.000   2.000     qc      0         |                
   |          6      2    0.250   2.000     qc      0         |                
   |         loc     3    0.000   2.192     pn      0         |                
   |                                                          |                
   | Augmentation charge Rinner = 1.398                       |                
   | Partial core correction Rc = 1.398                       |                
   ------------------------------------------------------------                
   | "3|2.2|2.2|1.4|4|5|5|30:31:32U2U2"                       |                
   ------------------------------------------------------------                
   |      Author: Chris J. Pickard, Cambridge University      |                
   ============================================================                
 
 Atomic calculation performed for Ni: 1s2 2s2 2p6 3s2 3p6 3d8 4s2
 
 Converged in 109 iterations to an ae energy of -41381.414 eV
 
   ============================================================                
   | Pseudopotential Report - Date of generation 11-10-2022   |                
   ------------------------------------------------------------                
   | Element: Ni Ionic charge: 10.00 Level of theory: RPBE    |                
   | Atomic Solver: Koelling-Harmon                           |                
   |                                                          |                
   |               Reference Electronic Structure             |                
   |         Orbital         Occupation         Energy        |                
   |            3d              8.000           -0.324        |                
   |            4s              2.000           -0.204        |                
   |                                                          |                
   |                 Pseudopotential Definition               |                
   |        Beta     l      e      Rc     scheme   norm       |                
   |          1      0   -0.204   2.401     qc      0         |                
   |          2      0    0.250   2.401     qc      0         |                
   |          3      1    0.000   2.401     qc      0         |                
   |          4      1    0.250   2.401     qc      0         |                
   |          5      2   -0.324   1.999     qc      0         |                
   |          6      2    0.250   1.999     qc      0         |                
   |         loc     3    0.000   2.401     pn      0         |                
   |                                                          |                
   | Augmentation charge Rinner = 1.001                       |                
   | Partial core correction Rc = 1.001                       |                
   ------------------------------------------------------------                
   | "3|2.4|2.4|1.0|8|9|10|40:41:32U2U2(qc=5.5)"              |                
   ------------------------------------------------------------                
   |      Author: Chris J. Pickard, Cambridge University      |                
   ============================================================                
 
 Pseudo atomic calculation performed for Al 3s2 3p1
 
 Converged in 13 iterations to a total energy of -107.6592 eV
 
 Pseudo atomic calculation performed for Ni 3d8 4s2
 
 Converged in 41 iterations to a total energy of -1369.7890 eV
 Calculation parallelised over 48 processes.
 Data is distributed by G-vector(48-way)

 ************************************ Title ************************************
 

 ***************************** General Parameters ******************************
  
 output verbosity                               : normal  (1)
 write checkpoint data to                       : castep.check
 type of calculation                            : geometry optimization
 stress calculation                             : off
 density difference calculation                 : off
 electron localisation func (ELF) calculation   : off
 Hirshfeld analysis                             : off
 molecular orbital projected DOS                : off
 deltaSCF calculation                           : off
 unlimited duration calculation
 timing information                             : on
 memory usage estimate                          : on
 write extra output files                       : on
 write final potential to formatted file        : off
 write final density to formatted file          : off
 write BibTeX reference list                    : on
 write OTFG pseudopotential files               : on
 write electrostatic potential file             : on
 write bands file                               : on
 checkpoint writing                             : both castep_bin and check files
  
 output         length unit                     : A
 output           mass unit                     : amu
 output           time unit                     : ps
 output         charge unit                     : e
 output           spin unit                     : hbar/2
 output         energy unit                     : eV
 output          force unit                     : eV/A
 output       velocity unit                     : A/ps
 output       pressure unit                     : GPa
 output     inv_length unit                     : 1/A
 output      frequency unit                     : cm-1
 output force constant unit                     : eV/A**2
 output         volume unit                     : A**3
 output   IR intensity unit                     : (D/A)**2/amu
 output         dipole unit                     : D
 output         efield unit                     : eV/A/e
 output        entropy unit                     : J/mol/K
 output    efield chi2 unit                     : pm/V
  
 wavefunctions paging                           : none
 random number generator seed                   : randomised (144825544)
 data distribution                              : optimal for this architecture
 optimization strategy                          : maximize speed(+++)

 *********************** Exchange-Correlation Parameters ***********************
  
 using functional                               : revised Perdew Burke Ernzerhof
 relativistic treatment                         : Koelling-Harmon
 DFT+D: Semi-empirical dispersion correction    : off

 ************************* Pseudopotential Parameters **************************
  
 pseudopotential representation                 : reciprocal space
 <beta|phi> representation                      : reciprocal space
 spin-orbit coupling                            : off

 **************************** Basis Set Parameters *****************************
  
 plane wave basis set cut-off                   :   900.0000   eV
 size of standard grid                          :     1.7500
 size of   fine   gmax                          :    26.8966   1/A
 finite basis set correction                    : automatic
 number of sample energies                      :          3
           sample  spacing                      :     5.0000   eV

 **************************** Electronic Parameters ****************************
  
 number of  electrons                           :  2112.    
 net charge of system                           :  0.000    
 treating system as non-spin-polarized
 number of bands                                :       1168

 ********************* Electronic Minimization Parameters **********************
  
 Method: Treating system as metallic with density mixing treatment of electrons,
         and number of  SD  steps               :          1
         and number of  CG  steps               :          4
  
 total energy / atom convergence tol.           : 0.1000E-05   eV
 eigen-energy convergence tolerance             : 0.2192E-06   eV
 max force / atom convergence tol.              : ignored
 convergence tolerance window                   :          3   cycles
 max. number of SCF cycles                      :        360
 number of fixed-spin iterations                :         10
 smearing scheme                                : Gaussian
 smearing width                                 : 0.2000       eV
 Fermi energy convergence tolerance             : 0.2721E-13   eV
 periodic dipole correction                     : NONE

 ************************** Density Mixing Parameters **************************
  
 density-mixing scheme                          : Pulay
 max. length of mixing history                  :         20
 charge density mixing amplitude                : 0.8000    
 cut-off energy for mixing                      :  900.0       eV

 *********************** Population Analysis Parameters ************************
  
 Population analysis with cutoff                :  3.000       A
 Population analysis output                     : summary and pdos components

 ********************** Geometry Optimization Parameters ***********************
  
 optimization method                            : LBFGS
 max. no. of LBFGS updates                      : unbounded
 preconditioned LBFGS is activated
 preconditioner type                            : EXP
     stabilization constant                     :     0.1000
     parameter A                                :     3.0000
     nearest neighbor distance                  : automatic
     cut-off distance                           : automatic
     parameter mu                               : automatic
 variable cell method                           : fixed basis quality
 max. number of steps                           :         30
 estimated bulk modulus                         :  500.0       GPa
 estimated <frequency>                          :  1668.       cm-1
 geom line minimiser                            : on
 with line minimiser tolerance                  :     0.4000
 total energy convergence tolerance             : 0.2000E-04   eV/atom
        max ionic |force| tolerance             : 0.5000E-01   eV/A
 max ionic |displacement| tolerance             : 0.1000E-02   A
   max |stress component| tolerance             : 0.1000       GPa
 convergence tolerance window                   :          2   steps
 backup results every                           :          5   steps
 write geom trajectory file                     : on

 *******************************************************************************
  
 
                           -------------------------------
                                      Unit Cell
                           -------------------------------
        Real Lattice(A)                      Reciprocal Lattice(1/A)
    14.4528000     0.0000000     0.0000000        0.434738273   0.000000000   0.000000000
     0.0000000    14.4528000     0.0000000        0.000000000   0.434738273   0.000000000
     0.0000000     0.0000000    14.4528000        0.000000000   0.000000000   0.434738273
 
                       Lattice parameters(A)       Cell Angles
                    a =     14.452800          alpha =   90.000000
                    b =     14.452800          beta  =   90.000000
                    c =     14.452800          gamma =   90.000000
 
                       Current cell volume =          3018.950406       A**3
                                   density =             4.304791   AMU/A**3
                                           =             7.148274     g/cm^3
 
                           -------------------------------
                                     Cell Contents
                           -------------------------------
                         Total number of ions in cell =  256
                      Total number of species in cell =    2
                        Max number of any one species =  192
 
            xxxxxxxxxxxxxxxxxxxxxxxxxxxxxxxxxxxxxxxxxxxxxxxxxxxxxxxxxxxx
            x  Element    Atom        Fractional coordinates of atoms  x
            x            Number           u          v          w      x
            x----------------------------------------------------------x
            x  Al           1         0.937500   0.812500   0.937500   x 
            x  Al           2         0.187500   0.937500   0.812500   x 
            x  Al           3         0.937500   0.562500   0.937500   x 
            x  Al           4         0.687500   0.687500   0.812500   x 
            x  Al           5         0.437500   0.562500   0.937500   x 
            x  Al           6         0.187500   0.687500   0.812500   x 
            x  Al           7         0.187500   0.562500   0.937500   x 
            x  Al           8         0.812500   0.437500   0.937500   x 
            x  Al           9         0.562500   0.312500   0.812500   x 
            x  Al          10         0.687500   0.312500   0.937500   x 
            x  Al          11         0.437500   0.437500   0.812500   x 
            x  Al          12         0.312500   0.437500   0.937500   x 
            x  Al          13         0.062500   0.312500   0.812500   x 
            x  Al          14         0.937500   0.062500   0.937500   x 
            x  Al          15         0.562500   0.062500   0.812500   x 
            x  Al          16         0.687500   0.062500   0.937500   x 
            x  Al          17         0.187500   0.187500   0.812500   x 
            x  Al          18         0.812500   0.812500   0.562500   x 
            x  Al          19         0.687500   0.937500   0.562500   x 
            x  Al          20         0.312500   0.937500   0.687500   x 
            x  Al          21         0.062500   0.812500   0.562500   x 
            x  Al          22         0.187500   0.937500   0.562500   x 
            x  Al          23         0.437500   0.687500   0.562500   x 
            x  Al          24         0.312500   0.687500   0.687500   x 
            x  Al          25         0.187500   0.687500   0.562500   x 
            x  Al          26         0.687500   0.312500   0.687500   x 
            x  Al          27         0.312500   0.437500   0.687500   x 
            x  Al          28         0.187500   0.437500   0.562500   x 
            x  Al          29         0.187500   0.312500   0.687500   x 
            x  Al          30         0.812500   0.187500   0.687500   x 
            x  Al          31         0.437500   0.062500   0.687500   x 
            x  Al          32         0.187500   0.187500   0.562500   x 
            x  Al          33         0.812500   0.812500   0.312500   x 
            x  Al          34         0.812500   0.937500   0.437500   x 
            x  Al          35         0.437500   0.937500   0.312500   x 
            x  Al          36         0.187500   0.812500   0.437500   x 
            x  Al          37         0.937500   0.562500   0.437500   x 
            x  Al          38         0.062500   0.562500   0.312500   x 
            x  Al          39         0.062500   0.687500   0.437500   x 
            x  Al          40         0.812500   0.437500   0.437500   x 
            x  Al          41         0.687500   0.437500   0.312500   x 
            x  Al          42         0.562500   0.437500   0.437500   x 
            x  Al          43         0.312500   0.312500   0.312500   x 
            x  Al          44         0.437500   0.312500   0.437500   x 
            x  Al          45         0.062500   0.312500   0.312500   x 
            x  Al          46         0.187500   0.312500   0.437500   x 
            x  Al          47         0.687500   0.062500   0.437500   x 
            x  Al          48         0.437500   0.187500   0.312500   x 
            x  Al          49         0.312500   0.187500   0.437500   x 
            x  Al          50         0.062500   0.187500   0.437500   x 
            x  Al          51         0.937500   0.937500   0.062500   x 
            x  Al          52         0.562500   0.812500   0.062500   x 
            x  Al          53         0.312500   0.812500   0.062500   x 
            x  Al          54         0.312500   0.937500   0.187500   x 
            x  Al          55         0.187500   0.937500   0.062500   x 
            x  Al          56         0.562500   0.562500   0.062500   x 
            x  Al          57         0.437500   0.562500   0.187500   x 
            x  Al          58         0.312500   0.687500   0.187500   x 
            x  Al          59         0.187500   0.562500   0.187500   x 
            x  Al          60         0.062500   0.687500   0.187500   x 
            x  Al          61         0.187500   0.437500   0.062500   x 
            x  Al          62         0.812500   0.187500   0.187500   x 
            x  Al          63         0.562500   0.062500   0.062500   x 
            x  Al          64         0.187500   0.062500   0.187500   x 
            x  Ni           1         0.062500   0.187500   0.187500   x 
            x  Ni           2         0.187500   0.187500   0.062500   x 
            x  Ni           3         0.062500   0.062500   0.062500   x 
            x  Ni           4         0.312500   0.187500   0.187500   x 
            x  Ni           5         0.437500   0.062500   0.187500   x 
            x  Ni           6         0.437500   0.187500   0.062500   x 
            x  Ni           7         0.312500   0.062500   0.062500   x 
            x  Ni           8         0.562500   0.187500   0.187500   x 
            x  Ni           9         0.687500   0.062500   0.187500   x 
            x  Ni          10         0.687500   0.187500   0.062500   x 
            x  Ni          11         0.937500   0.062500   0.187500   x 
            x  Ni          12         0.937500   0.187500   0.062500   x 
            x  Ni          13         0.812500   0.062500   0.062500   x 
            x  Ni          14         0.062500   0.437500   0.187500   x 
            x  Ni          15         0.187500   0.312500   0.187500   x 
            x  Ni          16         0.062500   0.312500   0.062500   x 
            x  Ni          17         0.312500   0.437500   0.187500   x 
            x  Ni          18         0.437500   0.312500   0.187500   x 
            x  Ni          19         0.437500   0.437500   0.062500   x 
            x  Ni          20         0.312500   0.312500   0.062500   x 
            x  Ni          21         0.562500   0.437500   0.187500   x 
            x  Ni          22         0.687500   0.312500   0.187500   x 
            x  Ni          23         0.687500   0.437500   0.062500   x 
            x  Ni          24         0.562500   0.312500   0.062500   x 
            x  Ni          25         0.812500   0.437500   0.187500   x 
            x  Ni          26         0.937500   0.312500   0.187500   x 
            x  Ni          27         0.937500   0.437500   0.062500   x 
            x  Ni          28         0.812500   0.312500   0.062500   x 
            x  Ni          29         0.187500   0.687500   0.062500   x 
            x  Ni          30         0.062500   0.562500   0.062500   x 
            x  Ni          31         0.437500   0.687500   0.062500   x 
            x  Ni          32         0.312500   0.562500   0.062500   x 
            x  Ni          33         0.562500   0.687500   0.187500   x 
            x  Ni          34         0.687500   0.562500   0.187500   x 
            x  Ni          35         0.687500   0.687500   0.062500   x 
            x  Ni          36         0.812500   0.687500   0.187500   x 
            x  Ni          37         0.937500   0.562500   0.187500   x 
            x  Ni          38         0.937500   0.687500   0.062500   x 
            x  Ni          39         0.812500   0.562500   0.062500   x 
            x  Ni          40         0.062500   0.937500   0.187500   x 
            x  Ni          41         0.187500   0.812500   0.187500   x 
            x  Ni          42         0.062500   0.812500   0.062500   x 
            x  Ni          43         0.437500   0.812500   0.187500   x 
            x  Ni          44         0.437500   0.937500   0.062500   x 
            x  Ni          45         0.562500   0.937500   0.187500   x 
            x  Ni          46         0.687500   0.812500   0.187500   x 
            x  Ni          47         0.687500   0.937500   0.062500   x 
            x  Ni          48         0.812500   0.937500   0.187500   x 
            x  Ni          49         0.937500   0.812500   0.187500   x 
            x  Ni          50         0.812500   0.812500   0.062500   x 
            x  Ni          51         0.187500   0.062500   0.437500   x 
            x  Ni          52         0.187500   0.187500   0.312500   x 
            x  Ni          53         0.062500   0.062500   0.312500   x 
            x  Ni          54         0.437500   0.062500   0.437500   x 
            x  Ni          55         0.312500   0.062500   0.312500   x 
            x  Ni          56         0.562500   0.187500   0.437500   x 
            x  Ni          57         0.687500   0.187500   0.312500   x 
            x  Ni          58         0.562500   0.062500   0.312500   x 
            x  Ni          59         0.812500   0.187500   0.437500   x 
            x  Ni          60         0.937500   0.062500   0.437500   x 
            x  Ni          61         0.937500   0.187500   0.312500   x 
            x  Ni          62         0.812500   0.062500   0.312500   x 
            x  Ni          63         0.062500   0.437500   0.437500   x 
            x  Ni          64         0.187500   0.437500   0.312500   x 
            x  Ni          65         0.312500   0.437500   0.437500   x 
            x  Ni          66         0.437500   0.437500   0.312500   x 
            x  Ni          67         0.687500   0.312500   0.437500   x 
            x  Ni          68         0.562500   0.312500   0.312500   x 
            x  Ni          69         0.937500   0.312500   0.437500   x 
            x  Ni          70         0.937500   0.437500   0.312500   x 
            x  Ni          71         0.812500   0.312500   0.312500   x 
            x  Ni          72         0.187500   0.562500   0.437500   x 
            x  Ni          73         0.187500   0.687500   0.312500   x 
            x  Ni          74         0.312500   0.687500   0.437500   x 
            x  Ni          75         0.437500   0.562500   0.437500   x 
            x  Ni          76         0.437500   0.687500   0.312500   x 
            x  Ni          77         0.312500   0.562500   0.312500   x 
            x  Ni          78         0.562500   0.687500   0.437500   x 
            x  Ni          79         0.687500   0.562500   0.437500   x 
            x  Ni          80         0.687500   0.687500   0.312500   x 
            x  Ni          81         0.562500   0.562500   0.312500   x 
            x  Ni          82         0.812500   0.687500   0.437500   x 
            x  Ni          83         0.937500   0.687500   0.312500   x 
            x  Ni          84         0.812500   0.562500   0.312500   x 
            x  Ni          85         0.062500   0.937500   0.437500   x 
            x  Ni          86         0.187500   0.937500   0.312500   x 
            x  Ni          87         0.062500   0.812500   0.312500   x 
            x  Ni          88         0.312500   0.937500   0.437500   x 
            x  Ni          89         0.437500   0.812500   0.437500   x 
            x  Ni          90         0.312500   0.812500   0.312500   x 
            x  Ni          91         0.562500   0.937500   0.437500   x 
            x  Ni          92         0.687500   0.812500   0.437500   x 
            x  Ni          93         0.687500   0.937500   0.312500   x 
            x  Ni          94         0.562500   0.812500   0.312500   x 
            x  Ni          95         0.937500   0.812500   0.437500   x 
            x  Ni          96         0.937500   0.937500   0.312500   x 
            x  Ni          97         0.062500   0.187500   0.687500   x 
            x  Ni          98         0.187500   0.062500   0.687500   x 
            x  Ni          99         0.062500   0.062500   0.562500   x 
            x  Ni         100         0.312500   0.187500   0.687500   x 
            x  Ni         101         0.437500   0.187500   0.562500   x 
            x  Ni         102         0.312500   0.062500   0.562500   x 
            x  Ni         103         0.562500   0.187500   0.687500   x 
            x  Ni         104         0.687500   0.062500   0.687500   x 
            x  Ni         105         0.687500   0.187500   0.562500   x 
            x  Ni         106         0.562500   0.062500   0.562500   x 
            x  Ni         107         0.937500   0.062500   0.687500   x 
            x  Ni         108         0.937500   0.187500   0.562500   x 
            x  Ni         109         0.812500   0.062500   0.562500   x 
            x  Ni         110         0.062500   0.437500   0.687500   x 
            x  Ni         111         0.062500   0.312500   0.562500   x 
            x  Ni         112         0.437500   0.312500   0.687500   x 
            x  Ni         113         0.437500   0.437500   0.562500   x 
            x  Ni         114         0.312500   0.312500   0.562500   x 
            x  Ni         115         0.562500   0.437500   0.687500   x 
            x  Ni         116         0.687500   0.437500   0.562500   x 
            x  Ni         117         0.562500   0.312500   0.562500   x 
            x  Ni         118         0.812500   0.437500   0.687500   x 
            x  Ni         119         0.937500   0.312500   0.687500   x 
            x  Ni         120         0.937500   0.437500   0.562500   x 
            x  Ni         121         0.812500   0.312500   0.562500   x 
            x  Ni         122         0.062500   0.687500   0.687500   x 
            x  Ni         123         0.187500   0.562500   0.687500   x 
            x  Ni         124         0.062500   0.562500   0.562500   x 
            x  Ni         125         0.437500   0.562500   0.687500   x 
            x  Ni         126         0.312500   0.562500   0.562500   x 
            x  Ni         127         0.562500   0.687500   0.687500   x 
            x  Ni         128         0.687500   0.562500   0.687500   x 
            x  Ni         129         0.687500   0.687500   0.562500   x 
            x  Ni         130         0.562500   0.562500   0.562500   x 
            x  Ni         131         0.812500   0.687500   0.687500   x 
            x  Ni         132         0.937500   0.562500   0.687500   x 
            x  Ni         133         0.937500   0.687500   0.562500   x 
            x  Ni         134         0.812500   0.562500   0.562500   x 
            x  Ni         135         0.062500   0.937500   0.687500   x 
            x  Ni         136         0.187500   0.812500   0.687500   x 
            x  Ni         137         0.437500   0.812500   0.687500   x 
            x  Ni         138         0.437500   0.937500   0.562500   x 
            x  Ni         139         0.312500   0.812500   0.562500   x 
            x  Ni         140         0.562500   0.937500   0.687500   x 
            x  Ni         141         0.687500   0.812500   0.687500   x 
            x  Ni         142         0.562500   0.812500   0.562500   x 
            x  Ni         143         0.812500   0.937500   0.687500   x 
            x  Ni         144         0.937500   0.812500   0.687500   x 
            x  Ni         145         0.937500   0.937500   0.562500   x 
            x  Ni         146         0.062500   0.187500   0.937500   x 
            x  Ni         147         0.187500   0.062500   0.937500   x 
            x  Ni         148         0.062500   0.062500   0.812500   x 
            x  Ni         149         0.312500   0.187500   0.937500   x 
            x  Ni         150         0.437500   0.062500   0.937500   x 
            x  Ni         151         0.437500   0.187500   0.812500   x 
            x  Ni         152         0.312500   0.062500   0.812500   x 
            x  Ni         153         0.562500   0.187500   0.937500   x 
            x  Ni         154         0.687500   0.187500   0.812500   x 
            x  Ni         155         0.812500   0.187500   0.937500   x 
            x  Ni         156         0.937500   0.187500   0.812500   x 
            x  Ni         157         0.812500   0.062500   0.812500   x 
            x  Ni         158         0.062500   0.437500   0.937500   x 
            x  Ni         159         0.187500   0.312500   0.937500   x 
            x  Ni         160         0.187500   0.437500   0.812500   x 
            x  Ni         161         0.437500   0.312500   0.937500   x 
            x  Ni         162         0.312500   0.312500   0.812500   x 
            x  Ni         163         0.562500   0.437500   0.937500   x 
            x  Ni         164         0.687500   0.437500   0.812500   x 
            x  Ni         165         0.937500   0.312500   0.937500   x 
            x  Ni         166         0.937500   0.437500   0.812500   x 
            x  Ni         167         0.812500   0.312500   0.812500   x 
            x  Ni         168         0.062500   0.687500   0.937500   x 
            x  Ni         169         0.062500   0.562500   0.812500   x 
            x  Ni         170         0.312500   0.687500   0.937500   x 
            x  Ni         171         0.437500   0.687500   0.812500   x 
            x  Ni         172         0.312500   0.562500   0.812500   x 
            x  Ni         173         0.562500   0.687500   0.937500   x 
            x  Ni         174         0.687500   0.562500   0.937500   x 
            x  Ni         175         0.562500   0.562500   0.812500   x 
            x  Ni         176         0.812500   0.687500   0.937500   x 
            x  Ni         177         0.937500   0.687500   0.812500   x 
            x  Ni         178         0.812500   0.562500   0.812500   x 
            x  Ni         179         0.062500   0.937500   0.937500   x 
            x  Ni         180         0.187500   0.812500   0.937500   x 
            x  Ni         181         0.062500   0.812500   0.812500   x 
            x  Ni         182         0.312500   0.937500   0.937500   x 
            x  Ni         183         0.437500   0.812500   0.937500   x 
            x  Ni         184         0.437500   0.937500   0.812500   x 
            x  Ni         185         0.312500   0.812500   0.812500   x 
            x  Ni         186         0.562500   0.937500   0.937500   x 
            x  Ni         187         0.687500   0.812500   0.937500   x 
            x  Ni         188         0.687500   0.937500   0.812500   x 
            x  Ni         189         0.562500   0.812500   0.812500   x 
            x  Ni         190         0.812500   0.937500   0.937500   x 
            x  Ni         191         0.937500   0.937500   0.812500   x 
            x  Ni         192         0.812500   0.812500   0.812500   x 
            xxxxxxxxxxxxxxxxxxxxxxxxxxxxxxxxxxxxxxxxxxxxxxxxxxxxxxxxxxxx
 
 
                         No user defined ionic velocities
 
                           -------------------------------
                                   Details of Species
                           -------------------------------
 
                               Mass of species in AMU
                                    Al   26.9815400
                                    Ni   58.6934000
 
                          Electric Quadrupole Moment (Barn)
                                    Al    0.1466000 Isotope 27
                                    Ni    0.1620000 Isotope 61
 
                          Files used for pseudopotentials:
                                    Al 3|2.2|2.2|1.4|4|5|5|30:31:32U2U2
                                    Ni 3|2.4|2.4|1.0|8|9|10|40:41:32U2U2(qc=5.5)
 
                           -------------------------------
                              k-Points For BZ Sampling
                           -------------------------------
                       MP grid size for SCF calculation is  1  1  1
                            with an offset of   0.000  0.000  0.000
                       Number of kpoints used =             1
 
                           -------------------------------
                               Symmetry and Constraints
                           -------------------------------
 
                      Maximum deviation from symmetry =  0.00000         ANG
 
                      Number of symmetry operations   =           1
                      Number of ionic constraints     =           3
                      Point group of crystal =     1: C1, 1, 1
                      Space group of crystal =     1: P1, P 1
 
             Set iprint > 1 for details on symmetry rotations/translations
 
                         Centre of mass is constrained
             Set iprint > 1 for details of linear ionic constraints
 
                         Number of cell constraints= 0
                         Cell constraints are:  1 2 3 4 5 6
 
                         External pressure/stress (GPa)
                          0.00000   0.00000   0.00000
                                    0.00000   0.00000
                                              0.00000
  
+---------------- MEMORY AND SCRATCH DISK ESTIMATES PER PROCESS --------------+
|                                                     Memory          Disk    |
| Baseline code, static data and system overhead     6721.0 MB         0.0 MB |
| BLAS internal memory storage                          0.0 MB         0.0 MB |
| Model and support data                              703.7 MB         0.0 MB |
| Electronic energy minimisation requirements         158.6 MB         0.0 MB |
| Force calculation requirements                        5.4 MB         0.0 MB |
|                                               ----------------------------- |
| Approx. total storage required per process         7583.3 MB         0.0 MB |
|                                                                             |
| Requirements will fluctuate during execution and may exceed these estimates |
+-----------------------------------------------------------------------------+
Calculating finite basis set correction with  3 cut-off energies.
Calculating total energy with cut-off of  890.000 eV.
------------------------------------------------------------------------ <-- SCF
SCF loop      Energy           Fermi           Energy gain       Timer   <-- SCF
                               energy          per atom          (sec)   <-- SCF
------------------------------------------------------------------------ <-- SCF
Initial  -2.20432547E+005  0.00000000E+000                        18.49  <-- SCF
      1  -2.63786170E+005  7.12816369E+000   1.69350092E+002      58.03  <-- SCF
      2  -2.70726874E+005  3.81843850E+000   2.71121242E+001      92.16  <-- SCF
      3  -2.71452111E+005  3.69774045E+000   2.83295827E+000     128.20  <-- SCF
      4  -2.71512621E+005  3.84903420E+000   2.36367792E-001     159.00  <-- SCF
      5  -2.71787995E+005  6.66740874E+000   1.07567902E+000     198.36  <-- SCF
      6  -2.71606784E+005  5.64818404E+000  -7.07855818E-001     243.58  <-- SCF
      7  -2.71502327E+005  4.70627251E+000  -4.08035828E-001     283.89  <-- SCF
      8  -2.71479823E+005  4.52932902E+000  -8.79049701E-002     326.97  <-- SCF
      9  -2.71481713E+005  4.54818098E+000   7.38052550E-003     366.27  <-- SCF
     10  -2.71490733E+005  4.59136869E+000   3.52342476E-002     406.42  <-- SCF
     11  -2.71479441E+005  4.50017015E+000  -4.41088297E-002     445.67  <-- SCF
     12  -2.71477133E+005  4.48233895E+000  -9.01341592E-003     485.49  <-- SCF
     13  -2.71477667E+005  4.48965170E+000   2.08567055E-003     524.53  <-- SCF
     14  -2.71476954E+005  4.48375335E+000  -2.78582080E-003     563.76  <-- SCF
     15  -2.71476637E+005  4.48221162E+000  -1.24096503E-003     601.95  <-- SCF
     16  -2.71476655E+005  4.48472641E+000   7.21751868E-005     641.82  <-- SCF
     17  -2.71476629E+005  4.48893064E+000  -1.02135705E-004     680.80  <-- SCF
     18  -2.71476600E+005  4.49000924E+000  -1.11194411E-004     719.22  <-- SCF
     19  -2.71476610E+005  4.49047559E+000   3.71916508E-005     758.13  <-- SCF
     20  -2.71476604E+005  4.49093657E+000  -2.21412017E-005     796.61  <-- SCF
     21  -2.71476596E+005  4.49103764E+000  -3.04353615E-005     834.22  <-- SCF
     22  -2.71476597E+005  4.49104146E+000   3.08262459E-006     869.51  <-- SCF
     23  -2.71476597E+005  4.49087068E+000  -1.16616076E-006     899.12  <-- SCF
     24  -2.71476596E+005  4.49091039E+000  -4.12301290E-006     924.77  <-- SCF
     25  -2.71476596E+005  4.49091282E+000  -8.78247013E-009     949.33  <-- SCF
     26  -2.71476596E+005  4.49090254E+000   2.32846537E-007     973.91  <-- SCF
------------------------------------------------------------------------ <-- SCF
 
Final energy, E             =  -271471.4917796     eV
Final free energy (E-TS)    =  -271476.5959279     eV
(energies not corrected for finite basis set)
 
NB est. 0K energy (E-0.5TS)      =  -271474.0438537     eV
 
Calculating total energy with cut-off of  895.000 eV.
------------------------------------------------------------------------ <-- SCF
SCF loop      Energy           Fermi           Energy gain       Timer   <-- SCF
                               energy          per atom          (sec)   <-- SCF
------------------------------------------------------------------------ <-- SCF
Initial  -2.71471489E+005  0.00000000E+000                       986.64  <-- SCF
      1  -2.71476704E+005  4.49200230E+000   2.03687659E-002    1025.32  <-- SCF
      2  -2.71476704E+005  4.49200204E+000   7.75232658E-007    1053.18  <-- SCF
      3  -2.71500777E+005  4.63633745E+000   9.40347885E-002    1094.04  <-- SCF
      4  -2.71479444E+005  4.49232058E+000  -8.33328368E-002    1134.98  <-- SCF
      5  -2.71476649E+005  4.48118074E+000  -1.09157498E-002    1174.75  <-- SCF
      6  -2.71476617E+005  4.48389779E+000  -1.26861017E-004    1215.36  <-- SCF
      7  -2.71476630E+005  4.49002673E+000   5.21274915E-005    1255.02  <-- SCF
      8  -2.71476605E+005  4.49390216E+000  -9.86517953E-005    1293.68  <-- SCF
      9  -2.71476601E+005  4.49271514E+000  -1.68124183E-005    1331.97  <-- SCF
     10  -2.71476599E+005  4.49045826E+000  -7.59579277E-006    1368.16  <-- SCF
     11  -2.71476598E+005  4.48943761E+000  -3.63415938E-006    1394.24  <-- SCF
     12  -2.71476597E+005  4.48947435E+000  -1.20535927E-006    1419.27  <-- SCF
     13  -2.71476597E+005  4.49032576E+000  -2.49314012E-006    1444.33  <-- SCF
     14  -2.71476596E+005  4.49069193E+000  -1.55490808E-006    1469.01  <-- SCF
     15  -2.71476597E+005  4.49094784E+000   9.05790671E-007    1493.63  <-- SCF
     16  -2.71476596E+005  4.49103305E+000  -1.18674754E-006    1518.32  <-- SCF
     17  -2.71476596E+005  4.49098333E+000  -4.46347587E-007    1543.05  <-- SCF
     18  -2.71476596E+005  4.49098334E+000  -2.01082468E-011    1567.69  <-- SCF
------------------------------------------------------------------------ <-- SCF
 
Final energy, E             =  -271471.4918756     eV
Final free energy (E-TS)    =  -271476.5962357     eV
(energies not corrected for finite basis set)
 
NB est. 0K energy (E-0.5TS)      =  -271474.0440557     eV
 
Calculating total energy with cut-off of  900.000 eV.
------------------------------------------------------------------------ <-- SCF
SCF loop      Energy           Fermi           Energy gain       Timer   <-- SCF
                               energy          per atom          (sec)   <-- SCF
------------------------------------------------------------------------ <-- SCF
Initial  -2.71471491E+005  0.00000000E+000                      1580.37  <-- SCF
      1  -2.71476632E+005  4.49165978E+000   2.00808354E-002    1619.72  <-- SCF
      2  -2.71476632E+005  4.49165973E+000   1.61688092E-007    1646.43  <-- SCF
      3  -2.71485064E+005  4.54512626E+000   3.29385382E-002    1688.41  <-- SCF
      4  -2.71477209E+005  4.48567988E+000  -3.06856925E-002    1729.19  <-- SCF
      5  -2.71476599E+005  4.48532286E+000  -2.38067643E-003    1770.13  <-- SCF
      6  -2.71476604E+005  4.48819802E+000   1.69309383E-005    1811.36  <-- SCF
      7  -2.71476607E+005  4.49239176E+000   1.23105107E-005    1851.36  <-- SCF
      8  -2.71476598E+005  4.49306925E+000  -3.32431773E-005    1890.63  <-- SCF
      9  -2.71476597E+005  4.49202277E+000  -3.91548400E-006    1923.15  <-- SCF
     10  -2.71476597E+005  4.49071476E+000  -1.77312645E-006    1948.54  <-- SCF
     11  -2.71476597E+005  4.49027807E+000  -9.26610827E-007    1973.78  <-- SCF
     12  -2.71476597E+005  4.49033499E+000  -6.30942646E-008    1999.21  <-- SCF
------------------------------------------------------------------------ <-- SCF
 
Final energy, E             =  -271471.4953474     eV
Final free energy (E-TS)    =  -271476.5967098     eV
(energies not corrected for finite basis set)
 
NB est. 0K energy (E-0.5TS)      =  -271474.0460286     eV
 
 For future reference: finite basis dEtot/dlog(Ecut) =      -0.074996eV
 Total energy corrected for finite basis set = -271476.596805 eV
 
+---------------- MEMORY AND SCRATCH DISK ESTIMATES PER PROCESS --------------+
|                                                     Memory          Disk    |
| Model and support data                              723.2 MB         0.0 MB |
| Electronic energy minimisation requirements         158.6 MB         0.0 MB |
| Geometry minimisation requirements                  195.6 MB         0.0 MB |
|                                               ----------------------------- |
| Approx. total storage required per process         1077.4 MB         0.0 MB |
|                                                                             |
| Requirements will fluctuate during execution and may exceed these estimates |
+-----------------------------------------------------------------------------+
 
 
 ************************************** Forces **************************************
 *                                                                                  *
 *                           Cartesian components (eV/A)                            *
 * -------------------------------------------------------------------------------- *
 *                         x                    y                    z              *
 *                                                                                  *
 * Al              1     -0.05381             -0.72229             -0.74053         *
 * Al              2     -0.74451              0.05535              0.77420         *
 * Al              3      0.59172              0.70511             -0.02158         *
 * Al              4      0.09817              0.00677              0.00669         *
 * Al              5      0.06367              1.58788             -0.09728         *
 * Al              6     -0.82709              0.75538              0.06088         *
 * Al              7     -0.84118              0.77866              0.00774         *
 * Al              8      0.03776              0.05525              0.01680         *
 * Al              9     -0.79750             -0.73905             -0.05944         *
 * Al             10      0.07387             -0.76107              0.83336         *
 * Al             11      0.87071             -0.05790             -0.75379         *
 * Al             12     -0.01222             -1.65722              0.04654         *
 * Al             13     -1.52805              0.76126              0.78200         *
 * Al             14     -0.01385              0.73828             -0.76645         *
 * Al             15     -0.01904             -0.01912             -0.03245         *
 * Al             16      1.44358             -0.00797              0.05994         *
 * Al             17      0.67898             -1.53923              0.80945         *
 * Al             18      0.77353             -1.56401              0.82894         *
 * Al             19     -1.53063              0.01311              1.56642         *
 * Al             20      0.75102             -0.67414              0.02050         *
 * Al             21     -2.11902              0.58111              1.41400         *
 * Al             22     -0.05493              1.59821             -0.01385         *
 * Al             23      0.88880             -0.00260             -0.78265         *
 * Al             24      0.75424              0.03393              0.72353         *
 * Al             25      0.55835             -1.35569              0.57092         *
 * Al             26      0.05549              0.82014             -0.79895         *
 * Al             27      0.70847              0.76942              0.01714         *
 * Al             28     -0.81561              1.48872             -0.77634         *
 * Al             29     -0.07376              0.04105              0.05673         *
 * Al             30      0.73894             -0.73894              0.02302         *
 * Al             31     -0.00753              0.63550             -0.69639         *
 * Al             32     -0.00661             -1.60737              1.43091         *
 * Al             33     -0.08044             -0.74546             -0.85266         *
 * Al             34      1.56617              0.76766             -0.79028         *
 * Al             35      0.79253              0.01095              0.66170         *
 * Al             36      1.34357              0.62974             -2.09595         *
 * Al             37     -0.81936              0.06506              0.76192         *
 * Al             38     -0.08470             -1.50276             -0.01159         *
 * Al             39     -0.69333              0.09911             -0.46821         *
 * Al             40     -0.01812             -0.66972              0.78390         *
 * Al             41      0.02348              0.02314             -1.52763         *
 * Al             42      0.02578              0.74859              0.75191         *
 * Al             43     -0.50787              1.31058             -2.19466         *
 * Al             44      0.65233              0.59630              1.29236         *
 * Al             45     -0.83698              0.70571             -1.57064         *
 * Al             46      0.00865              1.52802              0.03880         *
 * Al             47     -0.74057              1.49642             -0.80341         *
 * Al             48      1.35776             -1.36415             -1.36785         *
 * Al             49      0.16959             -2.10968              0.52285         *
 * Al             50     -1.49392             -1.56233              0.00852         *
 * Al             51     -0.07981             -0.01601              1.48710         *
 * Al             52      0.06440             -0.00467              0.04535         *
 * Al             53      0.69659             -0.74983             -1.51902         *
 * Al             54      0.84375              0.02754              0.76137         *
 * Al             55     -1.51270              0.00098             -1.53279         *
 * Al             56      1.56810              0.02447              0.07846         *
 * Al             57      0.13883             -0.72556              0.78335         *
 * Al             58      0.13448              0.79768              0.73529         *
 * Al             59      0.68613             -0.81346             -0.02087         *
 * Al             60     -0.83786              1.47989             -0.82280         *
 * Al             61     -0.74262             -1.54490              0.81849         *
 * Al             62      0.00559              0.00068             -0.07093         *
 * Al             63     -0.70467              0.04398              0.80888         *
 * Al             64     -0.72651              1.50906              0.70248         *
 * Ni              1     -0.19043             -0.03048             -0.17902         *
 * Ni              2     -0.00470              0.19675             -0.03753         *
 * Ni              3     -0.00633              0.09124             -0.01774         *
 * Ni              4      0.12804              0.10253             -0.18403         *
 * Ni              5     -0.16020             -0.00644             -0.05115         *
 * Ni              6      0.00694              0.08709              0.07951         *
 * Ni              7     -0.23925             -0.19756              0.19421         *
 * Ni              8      0.20712              0.14515             -0.05903         *
 * Ni              9     -0.02945             -0.12538              0.21909         *
 * Ni             10     -0.18290              0.00646             -0.06069         *
 * Ni             11      0.20958              0.01805              0.16794         *
 * Ni             12      0.04443              0.13200              0.06586         *
 * Ni             13      0.05525             -0.08966              0.00756         *
 * Ni             14      0.01845              0.26950             -0.14188         *
 * Ni             15     -0.03401             -0.30003             -0.10653         *
 * Ni             16     -0.14769             -0.14472             -0.07947         *
 * Ni             17     -0.03885             -0.00471             -0.18255         *
 * Ni             18      0.03867             -0.02565              0.01056         *
 * Ni             19      0.06863              0.10564             -0.08165         *
 * Ni             20      0.02443             -0.02291              0.05399         *
 * Ni             21     -0.15353             -0.05173             -0.14110         *
 * Ni             22     -0.04440              0.03098             -0.14836         *
 * Ni             23      0.13322             -0.22137              0.22019         *
 * Ni             24      0.00023              0.01458              0.11065         *
 * Ni             25      0.04616             -0.04873             -0.14368         *
 * Ni             26     -0.01093              0.05989             -0.06861         *
 * Ni             27      0.10174             -0.00958             -0.01691         *
 * Ni             28      0.04718              0.13992             -0.06384         *
 * Ni             29      0.02478             -0.02267              0.22554         *
 * Ni             30      0.10265             -0.05564              0.20028         *
 * Ni             31     -0.10949             -0.20897              0.08165         *
 * Ni             32     -0.34512             -0.14775             -0.23864         *
 * Ni             33      0.12078             -0.05932              0.12048         *
 * Ni             34      0.10325              0.15290              0.04486         *
 * Ni             35      0.09574              0.00834             -0.06513         *
 * Ni             36     -0.00319              0.00508             -0.10383         *
 * Ni             37     -0.00505             -0.02289              0.03131         *
 * Ni             38     -0.25138             -0.01280              0.22871         *
 * Ni             39     -0.02281             -0.06214             -0.05832         *
 * Ni             40      0.11875             -0.02302              0.06531         *
 * Ni             41      0.40719              0.41867              0.02220         *
 * Ni             42     -0.02557             -0.04911             -0.16513         *
 * Ni             43     -0.11381             -0.00410              0.09945         *
 * Ni             44     -0.08994             -0.06996             -0.14656         *
 * Ni             45      0.20391              0.03846              0.05208         *
 * Ni             46     -0.00855             -0.01552              0.01808         *
 * Ni             47      0.16464              0.12284              0.05675         *
 * Ni             48     -0.15094              0.21809              0.02706         *
 * Ni             49     -0.03521              0.01206             -0.00100         *
 * Ni             50      0.08369              0.01002              0.00094         *
 * Ni             51     -0.04464              0.19159             -0.14216         *
 * Ni             52     -0.12944              0.61105              0.60890         *
 * Ni             53     -0.16017             -0.12068             -0.10101         *
 * Ni             54      0.11956              0.01449              0.20053         *
 * Ni             55     -0.11465             -0.23549              0.01711         *
 * Ni             56     -0.12573              0.07520              0.08346         *
 * Ni             57     -0.12825              0.16501             -0.04098         *
 * Ni             58      0.02846              0.04855             -0.15442         *
 * Ni             59      0.14442              0.01962              0.01397         *
 * Ni             60     -0.02637              0.07083             -0.00006         *
 * Ni             61      0.15574             -0.06101              0.13611         *
 * Ni             62      0.01172             -0.17780              0.05981         *
 * Ni             63      0.00866             -0.23418              0.09182         *
 * Ni             64      0.12443             -0.15364              0.09477         *
 * Ni             65     -0.01368             -0.07749             -0.15379         *
 * Ni             66      0.03159             -0.09587              0.13204         *
 * Ni             67      0.01508              0.07823             -0.08466         *
 * Ni             68      0.03017              0.03143              0.12889         *
 * Ni             69      0.10873             -0.09233              0.00967         *
 * Ni             70     -0.26107              0.17546             -0.09435         *
 * Ni             71      0.03429              0.02896              0.09060         *
 * Ni             72      0.06048              0.16056             -0.11435         *
 * Ni             73     -0.23760             -0.42704             -0.30822         *
 * Ni             74      0.00780             -0.05921             -0.18696         *
 * Ni             75     -0.04433              0.02919             -0.08203         *
 * Ni             76     -0.03753              0.04407              0.00891         *
 * Ni             77      0.03423              0.07806             -0.06598         *
 * Ni             78      0.02361             -0.04261             -0.09270         *
 * Ni             79      0.02876              0.04173             -0.05716         *
 * Ni             80     -0.02906             -0.14651             -0.04867         *
 * Ni             81      0.15457              0.04492              0.19919         *
 * Ni             82     -0.17448              0.03111              0.03428         *
 * Ni             83      0.40234             -0.39087              0.14950         *
 * Ni             84     -0.03375             -0.05184              0.02531         *
 * Ni             85      0.14990             -0.10759              0.20904         *
 * Ni             86     -0.09810              0.09392             -0.07123         *
 * Ni             87     -0.13484              0.14780             -0.02695         *
 * Ni             88     -0.00097              0.08478              0.15399         *
 * Ni             89     -0.02324             -0.04817             -0.00949         *
 * Ni             90      0.07026              0.01071              0.12519         *
 * Ni             91      0.13931             -0.04803              0.09206         *
 * Ni             92      0.25366              0.22545              0.21188         *
 * Ni             93      0.00620             -0.03173              0.06984         *
 * Ni             94      0.04961             -0.05953             -0.00097         *
 * Ni             95     -0.17800              0.13736             -0.11398         *
 * Ni             96     -0.06197             -0.04479             -0.09448         *
 * Ni             97      0.12500              0.31683              0.16276         *
 * Ni             98     -0.04585             -0.29358             -0.00945         *
 * Ni             99     -0.16137              0.07354              0.05690         *
 * Ni            100     -0.12143              0.27453             -0.02896         *
 * Ni            101      0.16544              0.13911             -0.07727         *
 * Ni            102      0.17006             -0.21213             -0.05762         *
 * Ni            103      0.02927             -0.08914             -0.09303         *
 * Ni            104     -0.00596             -0.04115             -0.06184         *
 * Ni            105      0.00004              0.14102              0.19799         *
 * Ni            106      0.06269              0.04226             -0.18557         *
 * Ni            107      0.11170             -0.08758              0.03629         *
 * Ni            108     -0.09163              0.00693             -0.00492         *
 * Ni            109     -0.07755             -0.28968             -0.40428         *
 * Ni            110     -0.02985             -0.09692             -0.01040         *
 * Ni            111      0.26728             -0.18911             -0.12030         *
 * Ni            112      0.03501              0.05284              0.05243         *
 * Ni            113      0.20983              0.05711             -0.13194         *
 * Ni            114     -0.48084             -0.17840              0.18298         *
 * Ni            115      0.01488             -0.07376              0.06643         *
 * Ni            116      0.04716              0.12346              0.07505         *
 * Ni            117     -0.12683             -0.04987             -0.12149         *
 * Ni            118      0.09962              0.08474              0.02972         *
 * Ni            119     -0.01204              0.10137             -0.15932         *
 * Ni            120     -0.08483              0.06788              0.01527         *
 * Ni            121     -0.00038             -0.16407              0.11196         *
 * Ni            122     -0.28846             -0.10975             -0.01116         *
 * Ni            123     -0.11689              0.08170              0.06835         *
 * Ni            124     -0.14087              0.12971              0.16591         *
 * Ni            125      0.11265              0.06356             -0.02041         *
 * Ni            126      0.14724              0.10320             -0.08456         *
 * Ni            127      0.06490              0.02829              0.03285         *
 * Ni            128     -0.05311             -0.03845             -0.16073         *
 * Ni            129     -0.11163             -0.04982              0.05211         *
 * Ni            130      0.09559              0.03363              0.06967         *
 * Ni            131      0.01265             -0.04864              0.05992         *
 * Ni            132      0.03922              0.02359             -0.09713         *
 * Ni            133      0.11892             -0.10881              0.07199         *
 * Ni            134     -0.01528             -0.06506              0.00791         *
 * Ni            135     -0.14802              0.08294              0.01824         *
 * Ni            136     -0.12334              0.08345             -0.09733         *
 * Ni            137      0.12718             -0.09736              0.03760         *
 * Ni            138      0.13705             -0.05355              0.03136         *
 * Ni            139      0.01453              0.03984             -0.14284         *
 * Ni            140     -0.14890             -0.07275              0.11863         *
 * Ni            141     -0.02889              0.07971             -0.10361         *
 * Ni            142     -0.05980             -0.06494              0.00316         *
 * Ni            143     -0.01648              0.03605             -0.00198         *
 * Ni            144      0.03349              0.01203              0.18739         *
 * Ni            145     -0.18014              0.08433              0.03164         *
 * Ni            146      0.11088              0.05484              0.11077         *
 * Ni            147     -0.01575              0.17193              0.11019         *
 * Ni            148     -0.08661              0.05252             -0.12999         *
 * Ni            149      0.14872              0.09116              0.11724         *
 * Ni            150     -0.22512              0.00593             -0.03493         *
 * Ni            151     -0.08953             -0.05830              0.13870         *
 * Ni            152      0.16060             -0.10956              0.00097         *
 * Ni            153     -0.13779             -0.09176              0.06017         *
 * Ni            154      0.00017              0.24510             -0.01649         *
 * Ni            155      0.07482              0.07701              0.00128         *
 * Ni            156     -0.08563             -0.02646              0.00548         *
 * Ni            157      0.02598             -0.20462             -0.08366         *
 * Ni            158     -0.07828             -0.02369              0.19582         *
 * Ni            159      0.07848             -0.21400              0.11413         *
 * Ni            160     -0.13333              0.03059             -0.11123         *
 * Ni            161     -0.06041              0.01615             -0.04177         *
 * Ni            162      0.09542              0.00129             -0.13135         *
 * Ni            163     -0.14378              0.04076             -0.15889         *
 * Ni            164     -0.11957             -0.03015              0.05351         *
 * Ni            165      0.08058             -0.15096              0.15136         *
 * Ni            166     -0.14878              0.07151             -0.13854         *
 * Ni            167      0.21638              0.05091             -0.02667         *
 * Ni            168      0.17424              0.06916              0.07583         *
 * Ni            169      0.11898             -0.10186             -0.17514         *
 * Ni            170      0.07589              0.04130             -0.13737         *
 * Ni            171      0.26909              0.14219              0.03195         *
 * Ni            172      0.20956             -0.32466              0.25510         *
 * Ni            173     -0.10299              0.00578              0.01726         *
 * Ni            174     -0.03322              0.06513              0.05036         *
 * Ni            175     -0.04549             -0.14829             -0.08833         *
 * Ni            176     -0.16298             -0.00436              0.13915         *
 * Ni            177     -0.06804             -0.02471             -0.16830         *
 * Ni            178      0.15403             -0.11423             -0.12047         *
 * Ni            179     -0.24818              0.04831              0.02909         *
 * Ni            180     -0.18606              0.00736              0.10801         *
 * Ni            181     -0.06905             -0.03697             -0.22816         *
 * Ni            182      0.15782              0.03751              0.12611         *
 * Ni            183     -0.03444             -0.03330             -0.18575         *
 * Ni            184      0.07078              0.04045             -0.00412         *
 * Ni            185      0.14370             -0.07025              0.19720         *
 * Ni            186      0.08716              0.10909             -0.17364         *
 * Ni            187      0.13393              0.14221              0.00985         *
 * Ni            188     -0.07367             -0.02072             -0.07823         *
 * Ni            189     -0.13383              0.05971              0.00484         *
 * Ni            190      0.14293             -0.19272             -0.00795         *
 * Ni            191     -0.01743              0.01243             -0.15285         *
 * Ni            192      0.07114              0.07944             -0.13659         *
 *                                                                                  *
 ************************************************************************************
 
 ***************** Stress Tensor *****************
 *                                               *
 *          Cartesian components (GPa)           *
 * --------------------------------------------- *
 *             x             y             z     *
 *                                               *
 *  x     -0.245061      0.040787      0.247523  *
 *  y      0.040787      0.263108      0.101650  *
 *  z      0.247523      0.101650     -0.229395  *
 *                                               *
 *  Pressure:    0.0704                          *
 *                                               *
 *************************************************
 EXP precond LBFGS => estimated nearest neighbor distance :  2.555       A
 EXP precond LBFGS => estimated cutoff distance :  5.110       A
 
 ************************************** Forces **************************************
 *                                                                                  *
 *                           Cartesian components (eV/A)                            *
 * -------------------------------------------------------------------------------- *
 *                         x                    y                    z              *
 *                                                                                  *
 * Al              1     -0.05381             -0.72229             -0.74053         *
 * Al              2     -0.74451              0.05535              0.77420         *
 * Al              3      0.59172              0.70511             -0.02158         *
 * Al              4      0.09817              0.00677              0.00669         *
 * Al              5      0.06367              1.58788             -0.09728         *
 * Al              6     -0.82709              0.75538              0.06088         *
 * Al              7     -0.84118              0.77866              0.00774         *
 * Al              8      0.03776              0.05525              0.01680         *
 * Al              9     -0.79750             -0.73905             -0.05944         *
 * Al             10      0.07387             -0.76107              0.83336         *
 * Al             11      0.87071             -0.05790             -0.75379         *
 * Al             12     -0.01222             -1.65722              0.04654         *
 * Al             13     -1.52805              0.76126              0.78200         *
 * Al             14     -0.01385              0.73828             -0.76645         *
 * Al             15     -0.01904             -0.01912             -0.03245         *
 * Al             16      1.44358             -0.00797              0.05994         *
 * Al             17      0.67898             -1.53923              0.80945         *
 * Al             18      0.77353             -1.56401              0.82894         *
 * Al             19     -1.53063              0.01311              1.56642         *
 * Al             20      0.75102             -0.67414              0.02050         *
 * Al             21     -2.11902              0.58111              1.41400         *
 * Al             22     -0.05493              1.59821             -0.01385         *
 * Al             23      0.88880             -0.00260             -0.78265         *
 * Al             24      0.75424              0.03393              0.72353         *
 * Al             25      0.55835             -1.35569              0.57092         *
 * Al             26      0.05549              0.82014             -0.79895         *
 * Al             27      0.70847              0.76942              0.01714         *
 * Al             28     -0.81561              1.48872             -0.77634         *
 * Al             29     -0.07376              0.04105              0.05673         *
 * Al             30      0.73894             -0.73894              0.02302         *
 * Al             31     -0.00753              0.63550             -0.69639         *
 * Al             32     -0.00661             -1.60737              1.43091         *
 * Al             33     -0.08044             -0.74546             -0.85266         *
 * Al             34      1.56617              0.76766             -0.79028         *
 * Al             35      0.79253              0.01095              0.66170         *
 * Al             36      1.34357              0.62974             -2.09595         *
 * Al             37     -0.81936              0.06506              0.76192         *
 * Al             38     -0.08470             -1.50276             -0.01159         *
 * Al             39     -0.69333              0.09911             -0.46821         *
 * Al             40     -0.01812             -0.66972              0.78390         *
 * Al             41      0.02348              0.02314             -1.52763         *
 * Al             42      0.02578              0.74859              0.75191         *
 * Al             43     -0.50787              1.31058             -2.19466         *
 * Al             44      0.65233              0.59630              1.29236         *
 * Al             45     -0.83698              0.70571             -1.57064         *
 * Al             46      0.00865              1.52802              0.03880         *
 * Al             47     -0.74057              1.49642             -0.80341         *
 * Al             48      1.35776             -1.36415             -1.36785         *
 * Al             49      0.16959             -2.10968              0.52285         *
 * Al             50     -1.49392             -1.56233              0.00852         *
 * Al             51     -0.07981             -0.01601              1.48710         *
 * Al             52      0.06440             -0.00467              0.04535         *
 * Al             53      0.69659             -0.74983             -1.51902         *
 * Al             54      0.84375              0.02754              0.76137         *
 * Al             55     -1.51270              0.00098             -1.53279         *
 * Al             56      1.56810              0.02447              0.07846         *
 * Al             57      0.13883             -0.72556              0.78335         *
 * Al             58      0.13448              0.79768              0.73529         *
 * Al             59      0.68613             -0.81346             -0.02087         *
 * Al             60     -0.83786              1.47989             -0.82280         *
 * Al             61     -0.74262             -1.54490              0.81849         *
 * Al             62      0.00559              0.00068             -0.07093         *
 * Al             63     -0.70467              0.04398              0.80888         *
 * Al             64     -0.72651              1.50906              0.70248         *
 * Ni              1     -0.19043             -0.03048             -0.17902         *
 * Ni              2     -0.00470              0.19675             -0.03753         *
 * Ni              3     -0.00633              0.09124             -0.01774         *
 * Ni              4      0.12804              0.10253             -0.18403         *
 * Ni              5     -0.16020             -0.00644             -0.05115         *
 * Ni              6      0.00694              0.08709              0.07951         *
 * Ni              7     -0.23925             -0.19756              0.19421         *
 * Ni              8      0.20712              0.14515             -0.05903         *
 * Ni              9     -0.02945             -0.12538              0.21909         *
 * Ni             10     -0.18290              0.00646             -0.06069         *
 * Ni             11      0.20958              0.01805              0.16794         *
 * Ni             12      0.04443              0.13200              0.06586         *
 * Ni             13      0.05525             -0.08966              0.00756         *
 * Ni             14      0.01845              0.26950             -0.14188         *
 * Ni             15     -0.03401             -0.30003             -0.10653         *
 * Ni             16     -0.14769             -0.14472             -0.07947         *
 * Ni             17     -0.03885             -0.00471             -0.18255         *
 * Ni             18      0.03867             -0.02565              0.01056         *
 * Ni             19      0.06863              0.10564             -0.08165         *
 * Ni             20      0.02443             -0.02291              0.05399         *
 * Ni             21     -0.15353             -0.05173             -0.14110         *
 * Ni             22     -0.04440              0.03098             -0.14836         *
 * Ni             23      0.13322             -0.22137              0.22019         *
 * Ni             24      0.00023              0.01458              0.11065         *
 * Ni             25      0.04616             -0.04873             -0.14368         *
 * Ni             26     -0.01093              0.05989             -0.06861         *
 * Ni             27      0.10174             -0.00958             -0.01691         *
 * Ni             28      0.04718              0.13992             -0.06384         *
 * Ni             29      0.02478             -0.02267              0.22554         *
 * Ni             30      0.10265             -0.05564              0.20028         *
 * Ni             31     -0.10949             -0.20897              0.08165         *
 * Ni             32     -0.34512             -0.14775             -0.23864         *
 * Ni             33      0.12078             -0.05932              0.12048         *
 * Ni             34      0.10325              0.15290              0.04486         *
 * Ni             35      0.09574              0.00834             -0.06513         *
 * Ni             36     -0.00319              0.00508             -0.10383         *
 * Ni             37     -0.00505             -0.02289              0.03131         *
 * Ni             38     -0.25138             -0.01280              0.22871         *
 * Ni             39     -0.02281             -0.06214             -0.05832         *
 * Ni             40      0.11875             -0.02302              0.06531         *
 * Ni             41      0.40719              0.41867              0.02220         *
[...]
            Ni 140 -- Ni 141                 0.09        2.60006
            Ni 66  -- Ni 81                  0.06        2.60010
             Al 28 -- Ni 65                  0.17        2.60012
            Ni 15  -- Ni 64                  0.03        2.60040
            Ni 95  -- Ni 133                -0.04        2.60047
             Al 50 -- Ni 111                 0.17        2.60050
             Al 33 -- Ni 92                  0.17        2.60070
            Ni 100 -- Ni 102                -0.00        2.60101
            Ni 10  -- Ni 28                  0.04        2.60134
            Ni 56  -- Ni 57                  0.09        2.60138
            Ni 2   -- Ni 4                   0.05        2.60148
            Ni 183 -- Ni 186                 0.09        2.60160
            Ni 30  -- Ni 38                  0.04        2.60168
             Al 1  -- Ni 191                 0.16        2.60181
            Ni 65  -- Ni 114                -0.02        2.60198
             Al 24 -- Ni 123                 0.18        2.60213
            Ni 60  -- Ni 85                  0.10        2.60216
            Ni 171 -- Ni 185                 0.04        2.60240
             Al 27 -- Ni 114                 0.18        2.60241
            Ni 110 -- Ni 124                 0.09        2.60246
            Ni 85  -- Ni 96                  0.11        2.60263
            Ni 155 -- Ni 157                 0.00        2.60268
            Ni 123 -- Ni 172                 0.03        2.60297
             Al 30 -- Ni 167                 0.18        2.60340
            Ni 23  -- Ni 34                  0.07        2.60343
             Al 30 -- Ni 119                 0.17        2.60362
             Al 11 -- Al 27                  0.24        2.60374
            Ni 122 -- Ni 136                -0.00        2.60385
            Ni 26  -- Ni 61                  0.02        2.60393
            Ni 170 -- Ni 171                 0.04        2.60411
            Ni 31  -- Ni 32                  0.11        2.60422
            Ni 17  -- Ni 77                  0.00        2.60467
            Ni 97  -- Ni 108                 0.10        2.60480
            Ni 168 -- Ni 181                -0.01        2.60505
            Ni 21  -- Ni 66                  0.04        2.60570
            Ni 57  -- Ni 59                  0.05        2.60574
            Ni 57  -- Ni 62                  0.03        2.60596
            Ni 29  -- Ni 168                 0.08        2.60610
            Ni 40  -- Ni 49                  0.07        2.60617
             Al 23 -- Ni 139                 0.20        2.60631
             Al 64 -- Ni 7                   0.16        2.60649
            Ni 7   -- Ni 44                  0.08        2.60658
            Ni 137 -- Ni 184                 0.05        2.60680
            Ni 164 -- Ni 178                 0.07        2.60695
            Ni 92  -- Ni 94                  0.11        2.60695
            Ni 118 -- Ni 164                 0.04        2.60756
            Ni 53  -- Ni 85                  0.10        2.60760
             Al 64 -- Ni 40                  0.18        2.60825
             Al 45 -- Ni 52                  0.16        2.60842
            Ni 15  -- Ni 20                  0.05        2.60864
            Ni 95  -- Ni 145                -0.02        2.60879
             Al 15 -- Ni 150                 0.16        2.60882
            Ni 63  -- Ni 70                 -0.00        2.60893
            Ni 41  -- Ni 73                  0.06        2.60900
             Al 25 -- Ni 122                 0.18        2.60908
            Ni 180 -- Ni 181                 0.03        2.60916
            Ni 159 -- Ni 162                 0.03        2.60921
            Ni 83  -- Ni 95                  0.05        2.60923
            Ni 101 -- Ni 102                 0.04        2.60950
             Al 39 -- Ni 73                  0.17        2.60975
            Ni 8   -- Ni 68                  0.11        2.60986
            Ni 78  -- Ni 92                  0.09        2.61003
            Ni 101 -- Ni 114                 0.04        2.61008
            Ni 116 -- Ni 121                 0.01        2.61016
             Al 28 -- Al 46                  0.24        2.61019
            Ni 97  -- Ni 107                 0.09        2.61023
            Ni 63  -- Ni 124                 0.04        2.61028
             Al 26 -- Ni 154                 0.18        2.61059
            Ni 14  -- Ni 64                 -0.03        2.61101
             Al 35 -- Ni 43                  0.16        2.61110
             Al 23 -- Ni 125                 0.17        2.61179
             Al 48 -- Ni 54                  0.16        2.61197
             Al 3  -- Ni 178                 0.16        2.61209
             Al 37 -- Ni 63                  0.18        2.61226
            Ni 133 -- Ni 144                 0.02        2.61227
             Al 23 -- Ni 127                 0.18        2.61257
            Ni 144 -- Ni 145                -0.01        2.61279
            Ni 85  -- Ni 145                 0.04        2.61288
            Ni 180 -- Ni 182                -0.05        2.61290
            Ni 13  -- Ni 155                 0.00        2.61298
             Al 10 -- Ni 163                 0.17        2.61333
            Ni 18  -- Ni 19                  0.13        2.61392
             Al 2  -- Ni 185                 0.17        2.61416
             Al 42 -- Ni 66                  0.16        2.61528
            Ni 83  -- Ni 87                  0.03        2.61574
            Ni 82  -- Ni 83                  0.04        2.61668
            Ni 136 -- Ni 181                 0.04        2.61669
            Ni 49  -- Ni 83                  0.08        2.61692
            Ni 58  -- Ni 91                  0.01        2.61722
            Ni 29  -- Ni 42                  0.06        2.61769
            Ni 56  -- Ni 105                 0.12        2.61851
             Al 57 -- Ni 33                  0.15        2.61854
             Al 47 -- Ni 93                  0.17        2.61857
            Ni 20  -- Ni 159                 0.02        2.61950
            Ni 140 -- Ni 142                 0.07        2.61989
             Al 24 -- Ni 126                 0.15        2.61994
             Al 20 -- Ni 98                  0.17        2.62008
             Al 59 -- Al 61                  0.24        2.62011
            Ni 65  -- Ni 72                  0.09        2.62021
            Ni 182 -- Ni 183                 0.02        2.62085
            Ni 19  -- Ni 20                  0.06        2.62143
            Ni 108 -- Ni 109                 0.07        2.62164
             Al 11 -- Ni 161                 0.14        2.62192
            Ni 16  -- Ni 159                 0.04        2.62197
            Ni 98  -- Ni 102                -0.01        2.62363
             Al 22 -- Ni 135                 0.16        2.62435
            Ni 75  -- Ni 130                -0.00        2.62446
            Ni 6   -- Ni 7                   0.11        2.62451
            Ni 29  -- Ni 170                 0.03        2.62453
            Ni 168 -- Ni 169                -0.05        2.62459
            Ni 158 -- Ni 159                 0.05        2.62467
             Al 52 -- Ni 31                  0.16        2.62552
             Al 33 -- Ni 96                  0.15        2.62573
             Al 10 -- Ni 164                 0.16        2.62581
             Al 32 -- Ni 111                 0.15        2.62582
             Al 26 -- Ni 103                 0.18        2.62623
             Al 2  -- Ni 152                 0.14        2.62676
            Ni 100 -- Ni 152                 0.01        2.62681
            Ni 170 -- Ni 183                 0.06        2.62722
            Ni 67  -- Ni 121                 0.04        2.62850
            Ni 149 -- Ni 152                 0.07        2.62872
            Ni 31  -- Ni 173                 0.04        2.62872
            Ni 188 -- Ni 190                 0.06        2.62938
            Ni 41  -- Ni 42                  0.04        2.62939
             Al 16 -- Ni 154                 0.16        2.62949
            Ni 97  -- Ni 99                  0.07        2.62950
            Ni 153 -- Ni 154                -0.02        2.62965
            Ni 165 -- Ni 166                 0.00        2.62980
            Ni 85  -- Ni 86                  0.08        2.62984
             Al 23 -- Ni 74                  0.17        2.63021
            Ni 106 -- Ni 140                 0.02        2.63055
             Al 27 -- Ni 162                 0.14        2.63073
            Ni 44  -- Ni 45                  0.02        2.63077
             Al 7  -- Ni 172                 0.18        2.63115
             Al 60 -- Ni 37                  0.15        2.63157
             Al 42 -- Ni 68                  0.15        2.63170
            Ni 86  -- Ni 90                 -0.00        2.63202
            Ni 1   -- Ni 2                   0.01        2.63220
            Ni 111 -- Ni 120                 0.08        2.63229
            Ni 54  -- Ni 55                 -0.02        2.63233
            Ni 51  -- Ni 99                 -0.09        2.63308
            Ni 168 -- Ni 177                 0.00        2.63410
            Ni 63  -- Ni 64                 -0.01        2.63420
             Al 11 -- Ni 162                 0.15        2.63445
            Ni 21  -- Ni 34                  0.01        2.63486
            Ni 22  -- Ni 68                  0.07        2.63495
            Ni 86  -- Ni 88                  0.03        2.63504
             Al 25 -- Ni 74                  0.15        2.63628
            Ni 112 -- Ni 151                 0.03        2.63657
            Ni 14  -- Ni 15                 -0.01        2.63690
            Ni 98  -- Ni 100                 0.00        2.63691
            Ni 17  -- Ni 64                  0.03        2.63852
            Ni 103 -- Ni 151                -0.03        2.63864
             Al 16 -- Ni 153                 0.15        2.63882
             Al 15 -- Al 31                  0.24        2.63966
            Ni 56  -- Ni 58                 -0.00        2.63997
            Ni 125 -- Ni 172                 0.02        2.64063
             Al 37 -- Al 39                  0.24        2.64089
            Ni 147 -- Ni 152                 0.02        2.64094
            Ni 73  -- Ni 74                  0.10        2.64221
            Ni 137 -- Ni 185                 0.01        2.64288
            Ni 137 -- Ni 139                 0.01        2.64314
            Ni 41  -- Ni 87                  0.07        2.64503
             Al 35 -- Ni 55                  0.15        2.64532
             Al 42 -- Al 44                  0.23        2.64547
            Ni 149 -- Ni 162                 0.08        2.64621
             Al 56 -- Ni 19                  0.14        2.64630
             Al 17 -- Ni 162                 0.17        2.64669
             Al 44 -- Ni 68                  0.16        2.64709
            Ni 147 -- Ni 179                 0.04        2.64782
            Ni 179 -- Ni 180                 0.03        2.64810
             Al 56 -- Ni 31                  0.17        2.64912
             Al 2  -- Ni 136                 0.18        2.64944
            Ni 72  -- Ni 124                -0.07        2.65015
             Al 38 -- Ni 73                  0.14        2.65128
             Al 60 -- Ni 41                  0.14        2.65342
            Ni 107 -- Ni 109                 0.07        2.65451
            Ni 63  -- Ni 72                 -0.01        2.65452
             Al 8  -- Al 10                  0.24        2.65626
             Al 43 -- Ni 65                  0.14        2.65705
            Ni 98  -- Ni 99                 -0.01        2.65742
             Al 53 -- Al 58                  0.24        2.65795
             Al 27 -- Ni 160                 0.15        2.65922
             Al 6  -- Al 7                   0.24        2.66004
            Ni 17  -- Ni 66                  0.07        2.66229
            Ni 80  -- Ni 92                  0.07        2.66237
             Al 5  -- Ni 163                 0.15        2.66301
             Al 9  -- Ni 115                 0.11        2.66431
             Al 24 -- Ni 139                 0.13        2.66437
            Ni 123 -- Ni 124                 0.01        2.66445
             Al 9  -- Al 10                  0.23        2.66462
             Al 6  -- Al 24                  0.26        2.66557
             Al 20 -- Al 31                  0.22        2.66561
             Al 9  -- Ni 163                 0.13        2.66589
             Al 41 -- Ni 67                  0.14        2.66629
             Al 35 -- Al 54                  0.23        2.66693
             Al 12 -- Al 61                  0.23        2.66761
             Al 24 -- Al 25                  0.24        2.66906
            Ni 31  -- Ni 183                 0.05        2.66921
            Ni 5   -- Ni 8                   0.01        2.67047
             Al 3  -- Al 8                   0.23        2.67080
            Ni 72  -- Ni 126                 0.03        2.67171
            Ni 14  -- Ni 70                  0.05        2.67288
             Al 10 -- Ni 167                 0.14        2.67350
             Al 9  -- Ni 164                 0.13        2.67358
            Ni 171 -- Ni 172                -0.01        2.67403
             Al 38 -- Al 59                  0.21        2.67422
             Al 28 -- Ni 111                 0.12        2.67667
             Al 32 -- Ni 114                 0.14        2.67679
            Ni 136 -- Ni 185                -0.03        2.67736
             Al 61 -- Ni 30                  0.12        2.67846
             Al 15 -- Al 16                  0.24        2.67859
             Al 53 -- Ni 41                  0.12        2.67925
             Al 5  -- Al 56                  0.23        2.68001
            Ni 52  -- Ni 53                  0.03        2.68037
            Ni 51  -- Ni 102                -0.05        2.68047
             Al 41 -- Ni 79                  0.12        2.68050
            Ni 123 -- Ni 126                -0.09        2.68243
             Al 58 -- Al 59                  0.21        2.68347
             Al 13 -- Al 29                  0.21        2.68501
             Al 9  -- Al 26                  0.21        2.68508
             Al 29 -- Al 32                  0.19        2.68661
             Al 20 -- Al 22                  0.23        2.68667
             Al 53 -- Ni 43                  0.14        2.68746
             Al 33 -- Al 34                  0.20        2.68798
             Al 32 -- Al 49                  0.21        2.68821
            Ni 31  -- Ni 170                 0.03        2.68917
             Al 27 -- Al 29                  0.21        2.68962
             Al 27 -- Al 28                  0.23        2.69105
            Ni 97  -- Ni 98                  0.02        2.69152
             Al 22 -- Ni 139                 0.15        2.69166
             Al 11 -- Al 12                  0.20        2.69287
             Al 5  -- Al 11                  0.20        2.69464
             Al 26 -- Al 30                  0.22        2.69522
             Al 57 -- Al 58                  0.23        2.69761
            Ni 52  -- Ni 55                  0.06        2.69810
            Ni 15  -- Ni 17                  0.00        2.69919
             Al 38 -- Al 39                  0.20        2.70201
             Al 37 -- Al 38                  0.21        2.70539
             Al 24 -- Ni 136                 0.13        2.70642
             Al 31 -- Ni 184                 0.10        2.70887
            Ni 1   -- Ni 52                  0.04        2.71012
            Ni 113 -- Ni 114                 0.04        2.71095
             Al 28 -- Ni 114                 0.12        2.71663
             Al 56 -- Al 57                  0.21        2.71765
             Al 41 -- Al 42                  0.21        2.71799
             Al 40 -- Ni 84                  0.09        2.72187
             Al 23 -- Al 24                  0.22        2.72188
             Al 40 -- Al 41                  0.21        2.72214
            Ni 4   -- Ni 52                  0.01        2.72228
             Al 36 -- Al 39                  0.25        2.72387
             Al 61 -- Ni 32                  0.12        2.72448
             Al 17 -- Al 29                  0.20        2.72612
             Al 49 -- Ni 114                 0.14        2.73063
             Al 32 -- Al 50                  0.19        2.73134
             Al 25 -- Al 39                  0.21        2.73380
             Al 21 -- Al 39                  0.23        2.73414
             Al 43 -- Al 46                  0.18        2.73449
             Al 21 -- Al 22                  0.20        2.73493
             Al 22 -- Al 36                  0.20        2.74558
             Al 44 -- Al 49                  0.25        2.74933
             Al 45 -- Al 46                  0.16        2.75117
             Al 14 -- Al 51                  0.20        2.75311
             Al 57 -- Ni 32                  0.12        2.75326
             Al 16 -- Al 63                  0.19        2.75579
             Al 34 -- Al 47                  0.17        2.75580
             Al 53 -- Al 54                  0.18        2.75734
             Al 1  -- Al 51                  0.18        2.77265
            Ni 73  -- Ni 90                  0.04        2.77333
             Al 2  -- Al 20                  0.18        2.77661
             Al 7  -- Al 61                  0.18        2.78037
             Al 18 -- Al 19                  0.17        2.78098
             Al 48 -- Al 49                  0.20        2.78438
             Al 18 -- Al 34                  0.17        2.78460
             Al 28 -- Al 29                  0.17        2.78560
             Al 7  -- Al 12                  0.16        2.79201
             Al 53 -- Al 55                  0.17        2.79754
             Al 54 -- Al 64                  0.16        2.79805
             Al 45 -- Al 50                  0.16        2.80122
             Al 46 -- Al 50                  0.16        2.80235
             Al 43 -- Al 44                  0.20        2.80422
             Al 19 -- Al 47                  0.16        2.80749
             Al 46 -- Al 49                  0.18        2.81232
             Al 54 -- Al 55                  0.16        2.81244
             Al 43 -- Al 48                  0.18        2.82005
             Al 38 -- Al 60                  0.13        2.82022
             Al 59 -- Al 60                  0.15        2.82082
             Al 55 -- Al 64                  0.15        2.82965
             Al 5  -- Al 12                  0.13        2.83342
             Al 58 -- Ni 32                  0.08        2.83637
             Al 19 -- Al 34                  0.14        2.84113
             Al 6  -- Ni 172                 0.08        2.85575
             Al 25 -- Al 36                  0.17        2.86356
             Al 13 -- Al 17                  0.14        2.87012
             Al 21 -- Al 25                  0.16        2.87134
             Al 44 -- Al 48                  0.14        2.88526
             Al 32 -- Al 46                  0.09        2.91217
             Al 43 -- Al 49                  0.11        2.97454
======================================================================
 

Writing analysis data to castep.castep_bin

Writing model to castep.check
 
 A BibTeX formatted list of references used in this run has been written to 
 castep.bib
 
Initialisation time =     11.81 s
Calculation time    =  24326.67 s
Finalisation time   =      2.70 s
Total time          =  24341.18 s
Peak Memory Use     = 8376148 kB
  
Overall parallel efficiency rating: Good (78%)                                  
  
Data was distributed by:-
G-vector (48-way); efficiency rating: Good (79%)                                
