 +-------------------------------------------------+
 |                                                 |
 |      CCC   AA    SSS  TTTTT  EEEEE  PPPP        |
 |     C     A  A  S       T    E      P   P       |
 |     C     AAAA   SS     T    EEE    PPPP        |
 |     C     A  A     S    T    E      P           |
 |      CCC  A  A  SSS     T    EEEEE  P           |
 |                                                 |
 +-------------------------------------------------+
 |                                                 |
 | Welcome to Academic Release CASTEP version 20.11|          
 | Ab Initio Total Energy Program                  |
 |                                                 |
 | Authors:                                        |
 | M. Segall, M. Probert, C. Pickard, P. Hasnip,   |
 | S. Clark, K. Refson, J. R. Yates, M. Payne      |
 |                                                 |
 | Contributors:                                   |
 | P. Lindan, P. Haynes, J. White, V. Milman,      |
 | N. Govind, M. Gibson, P. Tulip, V. Cocula,      |
 | B. Montanari, D. Quigley, M. Glover,            |
 | L. Bernasconi, A. Perlov, M. Plummer,           |
 | E. McNellis, J. Meyer, J. Gale, D. Jochym       |
 | J. Aarons, B. Walker, R. Gillen, D. Jones       |
 | T. Green, I. J. Bush, C. J. Armstrong,          |
 | E. J. Higgins, E. L. Brown, M. S. McFly,        |
 | J. Wilkins, B-C. Shih, P. J. P. Byrne,          |
 | R. J. Maurer, J. C. Womack, J. Dziedzic,        |
 | J. R. Kermode, A. Bartok-Partay                 |
 |                                                 |
 | Copyright (c) 2000 - 2020                       |
 |                                                 |
 |     Distributed under license from Cambridge    |
 |     Enterprise for academic use only.           |
 |                                                 |
 | Please cite                                     |
 |                                                 |
 |     "First principles methods using CASTEP"     |
 |                                                 |
 |         Zeitschrift fuer Kristallographie       |
 |           220(5-6) pp. 567-570 (2005)           |
 |                                                 |
 | S. J. Clark, M. D. Segall, C. J. Pickard,       |
 | P. J. Hasnip, M. J. Probert, K. Refson,         |
 | M. C. Payne                                     |
 |                                                 |
 |       in all publications arising from          |
 |              your use of CASTEP                 |
 |                                                 |
 +-------------------------------------------------+
 |                                                 |
 |              http://www.castep.org              |
 |                                                 |
 +-------------------------------------------------+
 
 
 
 Compiled for linux_x86_64_ifort on Wed, 22 Sep 2021 16:00:02 +0100
 from code version e772bf432+  HEAD  Sat Apr 3 17:41:32 2021 +0100
 Compiler: Intel Fortran 19.1.3.304; Optimisation: fast
 MATHLIBS: Intel MKL(2020.0.4) (LAPACK version 3.8.0)
 FFT Lib : mkl
 Fundamental constants values: CODATA 2014
 
 Run started: Tue, 11 Oct 2022 15:56:54 +0100
 
 Atomic calculation performed for Al: 1s2 2s2 2p6 3s2 3p1
 
 Converged in 52 iterations to an ae energy of -6606.982 eV
 
   ============================================================                
   | Pseudopotential Report - Date of generation 11-10-2022   |                
   ------------------------------------------------------------                
   | Element: Al Ionic charge:  3.00 Level of theory: RPBE    |                
   | Atomic Solver: Koelling-Harmon                           |                
   |                                                          |                
   |               Reference Electronic Structure             |                
   |         Orbital         Occupation         Energy        |                
   |            3s              2.000           -0.284        |                
   |            3p              1.000           -0.100        |                
   |                                                          |                
   |                 Pseudopotential Definition               |                
   |        Beta     l      e      Rc     scheme   norm       |                
   |          1      0   -0.284   2.192     qc      0         |                
   |          2      0    0.250   2.192     qc      0         |                
   |          3      1   -0.100   2.192     qc      0         |                
   |          4      1    0.250   2.192     qc      0         |                
   |          5      2    0.000   2.000     qc      0         |                
   |          6      2    0.250   2.000     qc      0         |                
   |         loc     3    0.000   2.192     pn      0         |                
   |                                                          |                
   | Augmentation charge Rinner = 1.398                       |                
   | Partial core correction Rc = 1.398                       |                
   ------------------------------------------------------------                
   | "3|2.2|2.2|1.4|4|5|5|30:31:32U2U2"                       |                
   ------------------------------------------------------------                
   |      Author: Chris J. Pickard, Cambridge University      |                
   ============================================================                
 
 Atomic calculation performed for Ni: 1s2 2s2 2p6 3s2 3p6 3d8 4s2
 
 Converged in 109 iterations to an ae energy of -41381.414 eV
 
   ============================================================                
   | Pseudopotential Report - Date of generation 11-10-2022   |                
   ------------------------------------------------------------                
   | Element: Ni Ionic charge: 10.00 Level of theory: RPBE    |                
   | Atomic Solver: Koelling-Harmon                           |                
   |                                                          |                
   |               Reference Electronic Structure             |                
   |         Orbital         Occupation         Energy        |                
   |            3d              8.000           -0.324        |                
   |            4s              2.000           -0.204        |                
   |                                                          |                
   |                 Pseudopotential Definition               |                
   |        Beta     l      e      Rc     scheme   norm       |                
   |          1      0   -0.204   2.401     qc      0         |                
   |          2      0    0.250   2.401     qc      0         |                
   |          3      1    0.000   2.401     qc      0         |                
   |          4      1    0.250   2.401     qc      0         |                
   |          5      2   -0.324   1.999     qc      0         |                
   |          6      2    0.250   1.999     qc      0         |                
   |         loc     3    0.000   2.401     pn      0         |                
   |                                                          |                
   | Augmentation charge Rinner = 1.001                       |                
   | Partial core correction Rc = 1.001                       |                
   ------------------------------------------------------------                
   | "3|2.4|2.4|1.0|8|9|10|40:41:32U2U2(qc=5.5)"              |                
   ------------------------------------------------------------                
   |      Author: Chris J. Pickard, Cambridge University      |                
   ============================================================                
 
 Pseudo atomic calculation performed for Al 3s2 3p1
 
 Converged in 13 iterations to a total energy of -107.6592 eV
 
 Pseudo atomic calculation performed for Ni 3d8 4s2
 
 Converged in 41 iterations to a total energy of -1369.7890 eV
 Calculation parallelised over 48 processes.
 Data is distributed by G-vector(48-way)

 ************************************ Title ************************************
 

 ***************************** General Parameters ******************************
  
 output verbosity                               : normal  (1)
 write checkpoint data to                       : castep.check
 type of calculation                            : geometry optimization
 stress calculation                             : off
 density difference calculation                 : off
 electron localisation func (ELF) calculation   : off
 Hirshfeld analysis                             : off
 molecular orbital projected DOS                : off
 deltaSCF calculation                           : off
 unlimited duration calculation
 timing information                             : on
 memory usage estimate                          : on
 write extra output files                       : on
 write final potential to formatted file        : off
 write final density to formatted file          : off
 write BibTeX reference list                    : on
 write OTFG pseudopotential files               : on
 write electrostatic potential file             : on
 write bands file                               : on
 checkpoint writing                             : both castep_bin and check files
  
 output         length unit                     : A
 output           mass unit                     : amu
 output           time unit                     : ps
 output         charge unit                     : e
 output           spin unit                     : hbar/2
 output         energy unit                     : eV
 output          force unit                     : eV/A
 output       velocity unit                     : A/ps
 output       pressure unit                     : GPa
 output     inv_length unit                     : 1/A
 output      frequency unit                     : cm-1
 output force constant unit                     : eV/A**2
 output         volume unit                     : A**3
 output   IR intensity unit                     : (D/A)**2/amu
 output         dipole unit                     : D
 output         efield unit                     : eV/A/e
 output        entropy unit                     : J/mol/K
 output    efield chi2 unit                     : pm/V
  
 wavefunctions paging                           : none
 random number generator seed                   : randomised (155654969)
 data distribution                              : optimal for this architecture
 optimization strategy                          : maximize speed(+++)

 *********************** Exchange-Correlation Parameters ***********************
  
 using functional                               : revised Perdew Burke Ernzerhof
 relativistic treatment                         : Koelling-Harmon
 DFT+D: Semi-empirical dispersion correction    : off

 ************************* Pseudopotential Parameters **************************
  
 pseudopotential representation                 : reciprocal space
 <beta|phi> representation                      : reciprocal space
 spin-orbit coupling                            : off

 **************************** Basis Set Parameters *****************************
  
 plane wave basis set cut-off                   :   900.0000   eV
 size of standard grid                          :     1.7500
 size of   fine   gmax                          :    26.8966   1/A
 finite basis set correction                    : automatic
 number of sample energies                      :          3
           sample  spacing                      :     5.0000   eV

 **************************** Electronic Parameters ****************************
  
 number of  electrons                           :  2112.    
 net charge of system                           :  0.000    
 treating system as non-spin-polarized
 number of bands                                :       1168

 ********************* Electronic Minimization Parameters **********************
  
 Method: Treating system as metallic with density mixing treatment of electrons,
         and number of  SD  steps               :          1
         and number of  CG  steps               :          4
  
 total energy / atom convergence tol.           : 0.1000E-05   eV
 eigen-energy convergence tolerance             : 0.2192E-06   eV
 max force / atom convergence tol.              : ignored
 convergence tolerance window                   :          3   cycles
 max. number of SCF cycles                      :        360
 number of fixed-spin iterations                :         10
 smearing scheme                                : Gaussian
 smearing width                                 : 0.2000       eV
 Fermi energy convergence tolerance             : 0.2721E-13   eV
 periodic dipole correction                     : NONE

 ************************** Density Mixing Parameters **************************
  
 density-mixing scheme                          : Pulay
 max. length of mixing history                  :         20
 charge density mixing amplitude                : 0.8000    
 cut-off energy for mixing                      :  900.0       eV

 *********************** Population Analysis Parameters ************************
  
 Population analysis with cutoff                :  3.000       A
 Population analysis output                     : summary and pdos components

 ********************** Geometry Optimization Parameters ***********************
  
 optimization method                            : LBFGS
 max. no. of LBFGS updates                      : unbounded
 preconditioned LBFGS is activated
 preconditioner type                            : EXP
     stabilization constant                     :     0.1000
     parameter A                                :     3.0000
     nearest neighbor distance                  : automatic
     cut-off distance                           : automatic
     parameter mu                               : automatic
 variable cell method                           : fixed basis quality
 max. number of steps                           :         30
 estimated bulk modulus                         :  500.0       GPa
 estimated <frequency>                          :  1668.       cm-1
 geom line minimiser                            : on
 with line minimiser tolerance                  :     0.4000
 total energy convergence tolerance             : 0.2000E-04   eV/atom
        max ionic |force| tolerance             : 0.5000E-01   eV/A
 max ionic |displacement| tolerance             : 0.1000E-02   A
   max |stress component| tolerance             : 0.1000       GPa
 convergence tolerance window                   :          2   steps
 backup results every                           :          5   steps
 write geom trajectory file                     : on

 *******************************************************************************
  
 
                           -------------------------------
                                      Unit Cell
                           -------------------------------
        Real Lattice(A)                      Reciprocal Lattice(1/A)
    14.4528000     0.0000000     0.0000000        0.434738273   0.000000000   0.000000000
     0.0000000    14.4528000     0.0000000        0.000000000   0.434738273   0.000000000
     0.0000000     0.0000000    14.4528000        0.000000000   0.000000000   0.434738273
 
                       Lattice parameters(A)       Cell Angles
                    a =     14.452800          alpha =   90.000000
                    b =     14.452800          beta  =   90.000000
                    c =     14.452800          gamma =   90.000000
 
                       Current cell volume =          3018.950406       A**3
                                   density =             4.304791   AMU/A**3
                                           =             7.148274     g/cm^3
 
                           -------------------------------
                                     Cell Contents
                           -------------------------------
                         Total number of ions in cell =  256
                      Total number of species in cell =    2
                        Max number of any one species =  192
 
            xxxxxxxxxxxxxxxxxxxxxxxxxxxxxxxxxxxxxxxxxxxxxxxxxxxxxxxxxxxx
            x  Element    Atom        Fractional coordinates of atoms  x
            x            Number           u          v          w      x
            x----------------------------------------------------------x
            x  Al           1         0.937500   0.812500   0.937500   x 
            x  Al           2         0.687500   0.812500   0.937500   x 
            x  Al           3         0.187500   0.937500   0.812500   x 
            x  Al           4         0.687500   0.687500   0.812500   x 
            x  Al           5         0.562500   0.687500   0.937500   x 
            x  Al           6         0.312500   0.312500   0.812500   x 
            x  Al           7         0.437500   0.312500   0.937500   x 
            x  Al           8         0.187500   0.437500   0.812500   x 
            x  Al           9         0.812500   0.062500   0.812500   x 
            x  Al          10         0.687500   0.062500   0.937500   x 
            x  Al          11         0.187500   0.062500   0.937500   x 
            x  Al          12         0.812500   0.812500   0.562500   x 
            x  Al          13         0.937500   0.937500   0.562500   x 
            x  Al          14         0.687500   0.812500   0.687500   x 
            x  Al          15         0.312500   0.812500   0.562500   x 
            x  Al          16         0.562500   0.562500   0.562500   x 
            x  Al          17         0.437500   0.562500   0.687500   x 
            x  Al          18         0.062500   0.562500   0.562500   x 
            x  Al          19         0.062500   0.687500   0.687500   x 
            x  Al          20         0.937500   0.437500   0.562500   x 
            x  Al          21         0.937500   0.312500   0.687500   x 
            x  Al          22         0.312500   0.312500   0.562500   x 
            x  Al          23         0.437500   0.312500   0.687500   x 
            x  Al          24         0.062500   0.312500   0.562500   x 
            x  Al          25         0.187500   0.437500   0.562500   x 
            x  Al          26         0.187500   0.312500   0.687500   x 
            x  Al          27         0.937500   0.062500   0.687500   x 
            x  Al          28         0.687500   0.187500   0.562500   x 
            x  Al          29         0.687500   0.062500   0.687500   x 
            x  Al          30         0.562500   0.187500   0.687500   x 
            x  Al          31         0.437500   0.187500   0.562500   x 
            x  Al          32         0.312500   0.187500   0.687500   x 
            x  Al          33         0.937500   0.937500   0.312500   x 
            x  Al          34         0.812500   0.937500   0.437500   x 
            x  Al          35         0.687500   0.812500   0.437500   x 
            x  Al          36         0.562500   0.937500   0.437500   x 
            x  Al          37         0.437500   0.937500   0.312500   x 
            x  Al          38         0.937500   0.562500   0.437500   x 
            x  Al          39         0.687500   0.687500   0.312500   x 
            x  Al          40         0.562500   0.687500   0.437500   x 
            x  Al          41         0.312500   0.687500   0.437500   x 
            x  Al          42         0.062500   0.687500   0.437500   x 
            x  Al          43         0.937500   0.437500   0.312500   x 
            x  Al          44         0.062500   0.437500   0.437500   x 
            x  Al          45         0.937500   0.187500   0.312500   x 
            x  Al          46         0.687500   0.187500   0.312500   x 
            x  Al          47         0.687500   0.062500   0.437500   x 
            x  Al          48         0.312500   0.062500   0.312500   x 
            x  Al          49         0.437500   0.062500   0.437500   x 
            x  Al          50         0.062500   0.187500   0.437500   x 
            x  Al          51         0.687500   0.937500   0.062500   x 
            x  Al          52         0.312500   0.812500   0.062500   x 
            x  Al          53         0.062500   0.812500   0.062500   x 
            x  Al          54         0.187500   0.812500   0.187500   x 
            x  Al          55         0.687500   0.687500   0.062500   x 
            x  Al          56         0.812500   0.312500   0.062500   x 
            x  Al          57         0.562500   0.437500   0.187500   x 
            x  Al          58         0.437500   0.437500   0.062500   x 
            x  Al          59         0.312500   0.437500   0.187500   x 
            x  Al          60         0.812500   0.062500   0.062500   x 
            x  Al          61         0.812500   0.187500   0.187500   x 
            x  Al          62         0.687500   0.187500   0.062500   x 
            x  Al          63         0.437500   0.062500   0.187500   x 
            x  Al          64         0.312500   0.187500   0.187500   x 
            x  Ni           1         0.062500   0.187500   0.187500   x 
            x  Ni           2         0.187500   0.062500   0.187500   x 
            x  Ni           3         0.187500   0.187500   0.062500   x 
            x  Ni           4         0.062500   0.062500   0.062500   x 
            x  Ni           5         0.437500   0.187500   0.062500   x 
            x  Ni           6         0.312500   0.062500   0.062500   x 
            x  Ni           7         0.562500   0.187500   0.187500   x 
            x  Ni           8         0.687500   0.062500   0.187500   x 
            x  Ni           9         0.562500   0.062500   0.062500   x 
            x  Ni          10         0.937500   0.062500   0.187500   x 
            x  Ni          11         0.937500   0.187500   0.062500   x 
            x  Ni          12         0.062500   0.437500   0.187500   x 
            x  Ni          13         0.187500   0.312500   0.187500   x 
            x  Ni          14         0.187500   0.437500   0.062500   x 
            x  Ni          15         0.062500   0.312500   0.062500   x 
            x  Ni          16         0.437500   0.312500   0.187500   x 
            x  Ni          17         0.312500   0.312500   0.062500   x 
            x  Ni          18         0.687500   0.312500   0.187500   x 
            x  Ni          19         0.687500   0.437500   0.062500   x 
            x  Ni          20         0.562500   0.312500   0.062500   x 
            x  Ni          21         0.812500   0.437500   0.187500   x 
            x  Ni          22         0.937500   0.312500   0.187500   x 
            x  Ni          23         0.937500   0.437500   0.062500   x 
            x  Ni          24         0.062500   0.687500   0.187500   x 
            x  Ni          25         0.187500   0.562500   0.187500   x 
            x  Ni          26         0.187500   0.687500   0.062500   x 
            x  Ni          27         0.062500   0.562500   0.062500   x 
            x  Ni          28         0.312500   0.687500   0.187500   x 
            x  Ni          29         0.437500   0.562500   0.187500   x 
            x  Ni          30         0.437500   0.687500   0.062500   x 
            x  Ni          31         0.312500   0.562500   0.062500   x 
            x  Ni          32         0.562500   0.687500   0.187500   x 
            x  Ni          33         0.687500   0.562500   0.187500   x 
            x  Ni          34         0.562500   0.562500   0.062500   x 
            x  Ni          35         0.812500   0.687500   0.187500   x 
            x  Ni          36         0.937500   0.562500   0.187500   x 
            x  Ni          37         0.937500   0.687500   0.062500   x 
            x  Ni          38         0.812500   0.562500   0.062500   x 
            x  Ni          39         0.062500   0.937500   0.187500   x 
            x  Ni          40         0.187500   0.937500   0.062500   x 
            x  Ni          41         0.312500   0.937500   0.187500   x 
            x  Ni          42         0.437500   0.812500   0.187500   x 
            x  Ni          43         0.437500   0.937500   0.062500   x 
            x  Ni          44         0.562500   0.937500   0.187500   x 
            x  Ni          45         0.687500   0.812500   0.187500   x 
            x  Ni          46         0.562500   0.812500   0.062500   x 
            x  Ni          47         0.812500   0.937500   0.187500   x 
            x  Ni          48         0.937500   0.812500   0.187500   x 
            x  Ni          49         0.937500   0.937500   0.062500   x 
            x  Ni          50         0.812500   0.812500   0.062500   x 
            x  Ni          51         0.187500   0.062500   0.437500   x 
            x  Ni          52         0.187500   0.187500   0.312500   x 
            x  Ni          53         0.062500   0.062500   0.312500   x 
            x  Ni          54         0.312500   0.187500   0.437500   x 
            x  Ni          55         0.437500   0.187500   0.312500   x 
            x  Ni          56         0.562500   0.187500   0.437500   x 
            x  Ni          57         0.562500   0.062500   0.312500   x 
            x  Ni          58         0.812500   0.187500   0.437500   x 
            x  Ni          59         0.937500   0.062500   0.437500   x 
            x  Ni          60         0.812500   0.062500   0.312500   x 
            x  Ni          61         0.187500   0.312500   0.437500   x 
            x  Ni          62         0.187500   0.437500   0.312500   x 
            x  Ni          63         0.062500   0.312500   0.312500   x 
            x  Ni          64         0.312500   0.437500   0.437500   x 
            x  Ni          65         0.437500   0.312500   0.437500   x 
            x  Ni          66         0.437500   0.437500   0.312500   x 
            x  Ni          67         0.312500   0.312500   0.312500   x 
            x  Ni          68         0.562500   0.437500   0.437500   x 
            x  Ni          69         0.687500   0.312500   0.437500   x 
            x  Ni          70         0.687500   0.437500   0.312500   x 
            x  Ni          71         0.562500   0.312500   0.312500   x 
            x  Ni          72         0.812500   0.437500   0.437500   x 
            x  Ni          73         0.937500   0.312500   0.437500   x 
            x  Ni          74         0.812500   0.312500   0.312500   x 
            x  Ni          75         0.187500   0.562500   0.437500   x 
            x  Ni          76         0.187500   0.687500   0.312500   x 
            x  Ni          77         0.062500   0.562500   0.312500   x 
            x  Ni          78         0.437500   0.562500   0.437500   x 
            x  Ni          79         0.437500   0.687500   0.312500   x 
            x  Ni          80         0.312500   0.562500   0.312500   x 
            x  Ni          81         0.687500   0.562500   0.437500   x 
            x  Ni          82         0.562500   0.562500   0.312500   x 
            x  Ni          83         0.812500   0.687500   0.437500   x 
            x  Ni          84         0.937500   0.687500   0.312500   x 
            x  Ni          85         0.812500   0.562500   0.312500   x 
            x  Ni          86         0.062500   0.937500   0.437500   x 
            x  Ni          87         0.187500   0.812500   0.437500   x 
            x  Ni          88         0.187500   0.937500   0.312500   x 
            x  Ni          89         0.062500   0.812500   0.312500   x 
            x  Ni          90         0.312500   0.937500   0.437500   x 
            x  Ni          91         0.437500   0.812500   0.437500   x 
            x  Ni          92         0.312500   0.812500   0.312500   x 
            x  Ni          93         0.687500   0.937500   0.312500   x 
            x  Ni          94         0.562500   0.812500   0.312500   x 
            x  Ni          95         0.937500   0.812500   0.437500   x 
            x  Ni          96         0.812500   0.812500   0.312500   x 
            x  Ni          97         0.062500   0.187500   0.687500   x 
            x  Ni          98         0.187500   0.062500   0.687500   x 
            x  Ni          99         0.187500   0.187500   0.562500   x 
            x  Ni         100         0.062500   0.062500   0.562500   x 
            x  Ni         101         0.437500   0.062500   0.687500   x 
            x  Ni         102         0.312500   0.062500   0.562500   x 
            x  Ni         103         0.562500   0.062500   0.562500   x 
            x  Ni         104         0.812500   0.187500   0.687500   x 
            x  Ni         105         0.937500   0.187500   0.562500   x 
            x  Ni         106         0.812500   0.062500   0.562500   x 
            x  Ni         107         0.062500   0.437500   0.687500   x 
            x  Ni         108         0.312500   0.437500   0.687500   x 
            x  Ni         109         0.437500   0.437500   0.562500   x 
            x  Ni         110         0.562500   0.437500   0.687500   x 
            x  Ni         111         0.687500   0.312500   0.687500   x 
            x  Ni         112         0.687500   0.437500   0.562500   x 
            x  Ni         113         0.562500   0.312500   0.562500   x 
            x  Ni         114         0.812500   0.437500   0.687500   x 
            x  Ni         115         0.812500   0.312500   0.562500   x 
            x  Ni         116         0.187500   0.562500   0.687500   x 
            x  Ni         117         0.187500   0.687500   0.562500   x 
            x  Ni         118         0.312500   0.687500   0.687500   x 
            x  Ni         119         0.437500   0.687500   0.562500   x 
            x  Ni         120         0.312500   0.562500   0.562500   x 
            x  Ni         121         0.562500   0.687500   0.687500   x 
            x  Ni         122         0.687500   0.562500   0.687500   x 
            x  Ni         123         0.687500   0.687500   0.562500   x 
            x  Ni         124         0.812500   0.687500   0.687500   x 
            x  Ni         125         0.937500   0.562500   0.687500   x 
            x  Ni         126         0.937500   0.687500   0.562500   x 
            x  Ni         127         0.812500   0.562500   0.562500   x 
            x  Ni         128         0.062500   0.937500   0.687500   x 
            x  Ni         129         0.187500   0.812500   0.687500   x 
            x  Ni         130         0.187500   0.937500   0.562500   x 
            x  Ni         131         0.062500   0.812500   0.562500   x 
            x  Ni         132         0.312500   0.937500   0.687500   x 
            x  Ni         133         0.437500   0.812500   0.687500   x 
            x  Ni         134         0.437500   0.937500   0.562500   x 
            x  Ni         135         0.562500   0.937500   0.687500   x 
            x  Ni         136         0.687500   0.937500   0.562500   x 
            x  Ni         137         0.562500   0.812500   0.562500   x 
            x  Ni         138         0.812500   0.937500   0.687500   x 
            x  Ni         139         0.937500   0.812500   0.687500   x 
            x  Ni         140         0.062500   0.187500   0.937500   x 
            x  Ni         141         0.187500   0.187500   0.812500   x 
            x  Ni         142         0.062500   0.062500   0.812500   x 
            x  Ni         143         0.312500   0.187500   0.937500   x 
            x  Ni         144         0.437500   0.062500   0.937500   x 
            x  Ni         145         0.437500   0.187500   0.812500   x 
            x  Ni         146         0.312500   0.062500   0.812500   x 
            x  Ni         147         0.562500   0.187500   0.937500   x 
            x  Ni         148         0.687500   0.187500   0.812500   x 
            x  Ni         149         0.562500   0.062500   0.812500   x 
            x  Ni         150         0.812500   0.187500   0.937500   x 
            x  Ni         151         0.937500   0.062500   0.937500   x 
            x  Ni         152         0.937500   0.187500   0.812500   x 
            x  Ni         153         0.062500   0.437500   0.937500   x 
            x  Ni         154         0.187500   0.312500   0.937500   x 
            x  Ni         155         0.062500   0.312500   0.812500   x 
            x  Ni         156         0.312500   0.437500   0.937500   x 
            x  Ni         157         0.437500   0.437500   0.812500   x 
            x  Ni         158         0.562500   0.437500   0.937500   x 
            x  Ni         159         0.687500   0.312500   0.937500   x 
            x  Ni         160         0.687500   0.437500   0.812500   x 
            x  Ni         161         0.562500   0.312500   0.812500   x 
            x  Ni         162         0.812500   0.437500   0.937500   x 
            x  Ni         163         0.937500   0.312500   0.937500   x 
            x  Ni         164         0.937500   0.437500   0.812500   x 
            x  Ni         165         0.812500   0.312500   0.812500   x 
            x  Ni         166         0.062500   0.687500   0.937500   x 
            x  Ni         167         0.187500   0.562500   0.937500   x 
            x  Ni         168         0.187500   0.687500   0.812500   x 
            x  Ni         169         0.062500   0.562500   0.812500   x 
            x  Ni         170         0.312500   0.687500   0.937500   x 
            x  Ni         171         0.437500   0.562500   0.937500   x 
            x  Ni         172         0.437500   0.687500   0.812500   x 
            x  Ni         173         0.312500   0.562500   0.812500   x 
            x  Ni         174         0.687500   0.562500   0.937500   x 
            x  Ni         175         0.562500   0.562500   0.812500   x 
            x  Ni         176         0.812500   0.687500   0.937500   x 
            x  Ni         177         0.937500   0.562500   0.937500   x 
            x  Ni         178         0.937500   0.687500   0.812500   x 
            x  Ni         179         0.812500   0.562500   0.812500   x 
            x  Ni         180         0.062500   0.937500   0.937500   x 
            x  Ni         181         0.187500   0.812500   0.937500   x 
            x  Ni         182         0.062500   0.812500   0.812500   x 
            x  Ni         183         0.312500   0.937500   0.937500   x 
            x  Ni         184         0.437500   0.812500   0.937500   x 
            x  Ni         185         0.437500   0.937500   0.812500   x 
            x  Ni         186         0.312500   0.812500   0.812500   x 
            x  Ni         187         0.562500   0.937500   0.937500   x 
            x  Ni         188         0.687500   0.937500   0.812500   x 
            x  Ni         189         0.562500   0.812500   0.812500   x 
            x  Ni         190         0.812500   0.937500   0.937500   x 
            x  Ni         191         0.937500   0.937500   0.812500   x 
            x  Ni         192         0.812500   0.812500   0.812500   x 
            xxxxxxxxxxxxxxxxxxxxxxxxxxxxxxxxxxxxxxxxxxxxxxxxxxxxxxxxxxxx
 
 
                         No user defined ionic velocities
 
                           -------------------------------
                                   Details of Species
                           -------------------------------
 
                               Mass of species in AMU
                                    Al   26.9815400
                                    Ni   58.6934000
 
                          Electric Quadrupole Moment (Barn)
                                    Al    0.1466000 Isotope 27
                                    Ni    0.1620000 Isotope 61
 
                          Files used for pseudopotentials:
                                    Al 3|2.2|2.2|1.4|4|5|5|30:31:32U2U2
                                    Ni 3|2.4|2.4|1.0|8|9|10|40:41:32U2U2(qc=5.5)
 
                           -------------------------------
                              k-Points For BZ Sampling
                           -------------------------------
                       MP grid size for SCF calculation is  1  1  1
                            with an offset of   0.000  0.000  0.000
                       Number of kpoints used =             1
 
                           -------------------------------
                               Symmetry and Constraints
                           -------------------------------
 
                      Maximum deviation from symmetry =  0.00000         ANG
 
                      Number of symmetry operations   =           1
                      Number of ionic constraints     =           3
                      Point group of crystal =     1: C1, 1, 1
                      Space group of crystal =     1: P1, P 1
 
             Set iprint > 1 for details on symmetry rotations/translations
 
                         Centre of mass is constrained
             Set iprint > 1 for details of linear ionic constraints
 
                         Number of cell constraints= 0
                         Cell constraints are:  1 2 3 4 5 6
 
                         External pressure/stress (GPa)
                          0.00000   0.00000   0.00000
                                    0.00000   0.00000
                                              0.00000
  
+---------------- MEMORY AND SCRATCH DISK ESTIMATES PER PROCESS --------------+
|                                                     Memory          Disk    |
| Baseline code, static data and system overhead     6719.0 MB         0.0 MB |
| BLAS internal memory storage                          0.0 MB         0.0 MB |
| Model and support data                              703.7 MB         0.0 MB |
| Electronic energy minimisation requirements         158.6 MB         0.0 MB |
| Force calculation requirements                        5.4 MB         0.0 MB |
|                                               ----------------------------- |
| Approx. total storage required per process         7581.3 MB         0.0 MB |
|                                                                             |
| Requirements will fluctuate during execution and may exceed these estimates |
+-----------------------------------------------------------------------------+
Calculating finite basis set correction with  3 cut-off energies.
Calculating total energy with cut-off of  890.000 eV.
------------------------------------------------------------------------ <-- SCF
SCF loop      Energy           Fermi           Energy gain       Timer   <-- SCF
                               energy          per atom          (sec)   <-- SCF
------------------------------------------------------------------------ <-- SCF
Initial  -2.20502915E+005  0.00000000E+000                        20.96  <-- SCF
      1  -2.63756133E+005  7.14788653E+000   1.68957882E+002      59.94  <-- SCF
      2  -2.70719525E+005  3.84745261E+000   2.72007501E+001      93.88  <-- SCF
      3  -2.71444946E+005  3.73670324E+000   2.83367633E+000     129.85  <-- SCF
      4  -2.71505556E+005  3.87134003E+000   2.36757923E-001     159.83  <-- SCF
      5  -2.71819121E+005  6.70573005E+000   1.22486221E+000     199.80  <-- SCF
      6  -2.71587210E+005  5.62285708E+000  -9.05899777E-001     244.87  <-- SCF
      7  -2.71498543E+005  4.74042072E+000  -3.46356132E-001     285.17  <-- SCF
      8  -2.71476886E+005  4.51566455E+000  -8.45981947E-002     328.10  <-- SCF
      9  -2.71474782E+005  4.53442056E+000  -8.21716495E-003     367.40  <-- SCF
     10  -2.71491972E+005  4.61505355E+000   6.71455211E-002     406.31  <-- SCF
     11  -2.71474996E+005  4.50799156E+000  -6.63129705E-002     449.50  <-- SCF
     12  -2.71471766E+005  4.47866274E+000  -1.26150465E-002     487.94  <-- SCF
     13  -2.71472139E+005  4.48825661E+000   1.45653527E-003     527.31  <-- SCF
     14  -2.71471945E+005  4.49217822E+000  -7.56966966E-004     566.52  <-- SCF
     15  -2.71471268E+005  4.49019777E+000  -2.64354717E-003     604.81  <-- SCF
     16  -2.71471230E+005  4.48951924E+000  -1.50830710E-004     645.04  <-- SCF
     17  -2.71471239E+005  4.49296182E+000   3.51788619E-005     684.44  <-- SCF
     18  -2.71471177E+005  4.49349983E+000  -2.41728185E-004     723.25  <-- SCF
     19  -2.71471166E+005  4.49405396E+000  -4.24367010E-005     762.13  <-- SCF
     20  -2.71471183E+005  4.49458495E+000   6.72210658E-005     801.38  <-- SCF
     21  -2.71471163E+005  4.49409269E+000  -7.76669943E-005     839.79  <-- SCF
     22  -2.71471160E+005  4.49463696E+000  -1.35410119E-005     877.22  <-- SCF
     23  -2.71471165E+005  4.49447348E+000   1.98197868E-005     915.65  <-- SCF
     24  -2.71471160E+005  4.49467852E+000  -1.88484688E-005     952.55  <-- SCF
     25  -2.71471159E+005  4.49460239E+000  -6.59931488E-006     982.40  <-- SCF
     26  -2.71471159E+005  4.49460179E+000  -4.51414672E-008    1006.99  <-- SCF
     27  -2.71471159E+005  4.49466570E+000   8.62442124E-007    1031.57  <-- SCF
------------------------------------------------------------------------ <-- SCF
 
Final energy, E             =  -271465.5693206     eV
Final free energy (E-TS)    =  -271471.1587515     eV
(energies not corrected for finite basis set)
 
NB est. 0K energy (E-0.5TS)      =  -271468.3640360     eV
 
Calculating total energy with cut-off of  895.000 eV.
------------------------------------------------------------------------ <-- SCF
SCF loop      Energy           Fermi           Energy gain       Timer   <-- SCF
                               energy          per atom          (sec)   <-- SCF
------------------------------------------------------------------------ <-- SCF
Initial  -2.71465555E+005  0.00000000E+000                      1044.23  <-- SCF
      1  -2.71472171E+005  4.49828719E+000   2.58458235E-002    1083.64  <-- SCF
      2  -2.71472173E+005  4.49828509E+000   5.84453482E-006    1123.68  <-- SCF
      3  -2.71713394E+005  5.28117808E+000   9.42270442E-001    1164.77  <-- SCF
      4  -2.71494576E+005  4.59593021E+000  -8.54758895E-001    1213.31  <-- SCF
      5  -2.71476950E+005  4.45670030E+000  -6.88518909E-002    1256.31  <-- SCF
      6  -2.71472182E+005  4.45100859E+000  -1.86247038E-002    1296.21  <-- SCF
      7  -2.71471713E+005  4.46557315E+000  -1.83135727E-003    1335.84  <-- SCF
      8  -2.71471564E+005  4.48064824E+000  -5.80812554E-004    1375.10  <-- SCF
      9  -2.71471335E+005  4.49773310E+000  -8.97120036E-004    1413.74  <-- SCF
     10  -2.71471248E+005  4.49504090E+000  -3.38384201E-004    1453.27  <-- SCF
     11  -2.71471229E+005  4.48902836E+000  -7.37382290E-005    1492.24  <-- SCF
     12  -2.71471192E+005  4.48285978E+000  -1.44981847E-004    1530.85  <-- SCF
     13  -2.71471196E+005  4.48579773E+000   1.54806344E-005    1569.96  <-- SCF
     14  -2.71471179E+005  4.48978237E+000  -6.49639232E-005    1608.08  <-- SCF
     15  -2.71471176E+005  4.49097158E+000  -1.35410185E-005    1645.35  <-- SCF
     16  -2.71471172E+005  4.49235162E+000  -1.29390447E-005    1684.50  <-- SCF
     17  -2.71471162E+005  4.49409719E+000  -4.24187077E-005    1723.73  <-- SCF
     18  -2.71471160E+005  4.49443360E+000  -6.80430124E-006    1759.98  <-- SCF
     19  -2.71471160E+005  4.49451134E+000   2.18140332E-006    1793.64  <-- SCF
     20  -2.71471159E+005  4.49443991E+000  -4.65671381E-006    1821.65  <-- SCF
     21  -2.71471159E+005  4.49443516E+000  -9.59692953E-007    1846.36  <-- SCF
     22  -2.71471159E+005  4.49456857E+000  -3.80993272E-008    1871.03  <-- SCF
------------------------------------------------------------------------ <-- SCF
 
Final energy, E             =  -271465.5718651     eV
Final free energy (E-TS)    =  -271471.1589769     eV
(energies not corrected for finite basis set)
 
NB est. 0K energy (E-0.5TS)      =  -271468.3654210     eV
 
Calculating total energy with cut-off of  900.000 eV.
------------------------------------------------------------------------ <-- SCF
SCF loop      Energy           Fermi           Energy gain       Timer   <-- SCF
                               energy          per atom          (sec)   <-- SCF
------------------------------------------------------------------------ <-- SCF
Initial  -2.71465564E+005  0.00000000E+000                      1883.73  <-- SCF
      1  -2.71471681E+005  4.50072096E+000   2.38935194E-002    1923.68  <-- SCF
      2  -2.71471682E+005  4.50071972E+000   2.86041319E-006    1959.74  <-- SCF
      3  -2.71581613E+005  4.94517643E+000   4.29417690E-001    2001.92  <-- SCF
      4  -2.71497962E+005  4.55967806E+000  -3.26761076E-001    2047.43  <-- SCF
      5  -2.71477641E+005  4.46956906E+000  -7.93795447E-002    2088.79  <-- SCF
      6  -2.71473125E+005  4.46495604E+000  -1.76371149E-002    2129.17  <-- SCF
      7  -2.71472118E+005  4.46899093E+000  -3.93576609E-003    2168.61  <-- SCF
      8  -2.71471868E+005  4.48070548E+000  -9.75619722E-004    2208.88  <-- SCF
      9  -2.71471415E+005  4.49091500E+000  -1.77016399E-003    2249.14  <-- SCF
     10  -2.71471208E+005  4.49763238E+000  -8.09713496E-004    2289.74  <-- SCF
     11  -2.71471192E+005  4.49330862E+000  -6.13484968E-005    2331.05  <-- SCF
     12  -2.71471180E+005  4.48755664E+000  -4.86266634E-005    2370.46  <-- SCF
     13  -2.71471177E+005  4.48665909E+000  -1.10386889E-005    2409.96  <-- SCF
     14  -2.71471177E+005  4.49047066E+000   2.91119734E-006    2449.07  <-- SCF
     15  -2.71471174E+005  4.49215109E+000  -1.31388475E-005    2486.03  <-- SCF
     16  -2.71471168E+005  4.49315094E+000  -2.22135334E-005    2523.38  <-- SCF
     17  -2.71471161E+005  4.49427799E+000  -2.94212148E-005    2563.27  <-- SCF
     18  -2.71471160E+005  4.49463268E+000  -2.14843179E-006    2597.94  <-- SCF
     19  -2.71471160E+005  4.49443620E+000  -2.41037032E-006    2624.27  <-- SCF
     20  -2.71471160E+005  4.49414221E+000   1.79651717E-006    2656.24  <-- SCF
     21  -2.71471160E+005  4.49406346E+000   8.27989157E-007    2681.49  <-- SCF
     22  -2.71471160E+005  4.49432457E+000  -2.11730345E-006    2706.68  <-- SCF
     23  -2.71471159E+005  4.49480804E+000  -2.62713741E-006    2732.86  <-- SCF
     24  -2.71471159E+005  4.49488929E+000  -8.71325136E-008    2757.97  <-- SCF
     25  -2.71471159E+005  4.49482701E+000  -7.82531758E-008    2783.10  <-- SCF
------------------------------------------------------------------------ <-- SCF
 
Final energy, E             =  -271465.5701875     eV
Final free energy (E-TS)    =  -271471.1591046     eV
(energies not corrected for finite basis set)
 
NB est. 0K energy (E-0.5TS)      =  -271468.3646461     eV
 
 For future reference: finite basis dEtot/dlog(Ecut) =      -0.035067eV
 Total energy corrected for finite basis set = -271471.159149 eV
 
+---------------- MEMORY AND SCRATCH DISK ESTIMATES PER PROCESS --------------+
|                                                     Memory          Disk    |
| Model and support data                              723.2 MB         0.0 MB |
| Electronic energy minimisation requirements         158.6 MB         0.0 MB |
| Geometry minimisation requirements                  195.6 MB         0.0 MB |
|                                               ----------------------------- |
| Approx. total storage required per process         1077.4 MB         0.0 MB |
|                                                                             |
| Requirements will fluctuate during execution and may exceed these estimates |
+-----------------------------------------------------------------------------+
 
 
 ************************************** Forces **************************************
 *                                                                                  *
 *                           Cartesian components (eV/A)                            *
 * -------------------------------------------------------------------------------- *
 *                         x                    y                    z              *
 *                                                                                  *
 * Al              1     -0.61995             -0.14582             -0.68523         *
 * Al              2      0.73939              1.45366             -0.73171         *
 * Al              3      0.04746             -0.74193             -0.66658         *
 * Al              4      0.76367             -1.58679             -0.75394         *
 * Al              5     -2.29523             -0.78003             -0.04894         *
 * Al              6     -0.01451             -0.00485              1.55614         *
 * Al              7      0.77142             -0.64305              0.02777         *
 * Al              8     -0.77192              1.54455              0.93173         *
 * Al              9      0.82144             -0.00049              0.74333         *
 * Al             10     -1.59522              0.05384             -1.54829         *
 * Al             11     -0.00105              0.73524              0.71351         *
 * Al             12      0.77701             -1.53661              0.70832         *
 * Al             13      1.62904             -0.07806              0.05496         *
 * Al             14     -0.81939              0.63484              0.04233         *
 * Al             15     -0.01063              0.80580              0.82643         *
 * Al             16      0.74136             -0.80299             -0.00346         *
 * Al             17     -0.71286              0.02273              0.76739         *
 * Al             18      0.63974              0.57648              1.35987         *
 * Al             19     -0.02214              0.73653              0.87668         *
 * Al             20     -2.23758              0.20325              0.59639         *
 * Al             21     -0.77879             -0.72138              1.57952         *
 * Al             22      0.12519              0.67309             -2.10864         *
 * Al             23      1.40435              2.12123              0.64150         *
 * Al             24      0.01715             -1.52446             -0.02030         *
 * Al             25      1.55742              1.53740             -0.11901         *
 * Al             26     -1.52504             -0.83948              0.79349         *
 * Al             27      0.89463              0.78584              0.02045         *
 * Al             28      0.74043              1.61695             -0.77388         *
 * Al             29     -0.01259             -1.50750              0.13026         *
 * Al             30      0.03850              0.08708              1.63136         *
 * Al             31      0.50890             -0.58753             -1.40023         *
 * Al             32     -0.58065             -2.94648              0.71936         *
 * Al             33      0.86745             -0.02845             -0.78773         *
 * Al             34     -0.04106              0.71187             -0.72750         *
 * Al             35     -0.01239             -0.06516             -0.03030         *
 * Al             36     -0.09480             -0.77933              0.72251         *
 * Al             37     -0.14780             -2.30036             -0.72190         *
 * Al             38     -2.13334              1.32000             -0.66537         *
 * Al             39      0.75379             -0.84741             -1.52638         *
 * Al             40     -1.52027             -0.08563              0.02319         *
 * Al             41      0.04488             -0.76693             -0.84776         *
 * Al             42      0.79591              1.50337             -0.83947         *
 * Al             43     -0.72712             -0.66841             -1.62198         *
 * Al             44      1.41364             -0.58415             -2.18068         *
 * Al             45      0.06622             -0.00272             -0.15732         *
 * Al             46     -0.79252              0.93256              0.08024         *
 * Al             47      0.03545              0.10584             -0.09468         *
 * Al             48     -2.33259             -0.00344              0.75099         *
 * Al             49     -0.11483              0.71437              0.71513         *
 * Al             50      0.81534             -0.78194             -0.06614         *
 * Al             51     -0.75309             -0.79663              1.44363         *
 * Al             52      0.74504             -0.05068             -0.83002         *
 * Al             53      0.02048             -0.05190             -0.00500         *
 * Al             54     -0.03677             -0.12239              1.48204         *
 * Al             55      0.82848             -0.80389              1.54636         *
 * Al             56      0.77540              1.61085             -0.75164         *
 * Al             57      0.73175              0.09406              0.79114         *
 * Al             58     -0.04649              0.79136             -0.75244         *
 * Al             59     -0.79021              0.03542              0.73256         *
 * Al             60      2.33597             -0.72258              0.02051         *
 * Al             61      0.88990              0.08117              0.71224         *
 * Al             62     -2.32956              0.78615             -0.07273         *
 * Al             63      1.46987             -0.02550             -1.51441         *
 * Al             64     -0.81711              1.48867             -0.79316         *
 * Ni              1      0.08167             -0.04796             -0.11983         *
 * Ni              2     -0.00973              0.01416             -0.05479         *
 * Ni              3     -0.18169              0.07607             -0.02060         *
 * Ni              4     -0.08820             -0.05448              0.09834         *
 * Ni              5     -0.00305             -0.10651              0.02397         *
 * Ni              6      0.22665             -0.02593              0.10624         *
 * Ni              7     -0.07349              0.19833              0.09415         *
 * Ni              8      0.29929              0.27355             -0.31570         *
 * Ni              9      0.20071              0.01727             -0.29205         *
 * Ni             10      0.07431              0.19263             -0.07191         *
 * Ni             11     -0.12289             -0.01042              0.02131         *
 * Ni             12      0.10167              0.05026             -0.10663         *
 * Ni             13     -0.20164              0.00782              0.03780         *
 * Ni             14     -0.06270              0.03709             -0.10843         *
 * Ni             15      0.03862             -0.02310              0.07790         *
 * Ni             16      0.26060              0.18607             -0.08349         *
 * Ni             17     -0.05511              0.15530             -0.18779         *
 * Ni             18      0.47500             -0.36971             -0.11455         *
 * Ni             19     -0.01005              0.10040             -0.14591         *
 * Ni             20     -0.19650              0.23413             -0.04300         *
 * Ni             21     -0.09936              0.14256             -0.03355         *
 * Ni             22      0.12285             -0.12720             -0.13197         *
 * Ni             23      0.04232              0.10549             -0.00198         *
 * Ni             24     -0.05089              0.08777             -0.07660         *
 * Ni             25     -0.04699              0.10476             -0.01152         *
 * Ni             26     -0.06061              0.07724              0.11976         *
 * Ni             27      0.02347              0.01038              0.02177         *
 * Ni             28     -0.06995              0.07760              0.01550         *
 * Ni             29      0.09405             -0.12417             -0.10318         *
 * Ni             30     -0.09289             -0.19516              0.08226         *
 * Ni             31      0.06358              0.00595              0.02149         *
 * Ni             32     -0.16490             -0.00469             -0.08827         *
 * Ni             33      0.14487             -0.16074             -0.05892         *
 * Ni             34     -0.02054             -0.02063              0.02244         *
 * Ni             35      0.24155             -0.01647             -0.06934         *
 * Ni             36     -0.04435             -0.03462             -0.10077         *
 * Ni             37      0.03915             -0.03093             -0.05622         *
 * Ni             38      0.00991             -0.11826              0.03108         *
 * Ni             39      0.14657              0.08124             -0.20866         *
 * Ni             40     -0.01875             -0.13030              0.25852         *
 * Ni             41      0.10394              0.34232              0.07274         *
 * Ni             42      0.11666             -0.19094              0.02796         *
 * Ni             43      0.07793             -0.00038             -0.05404         *
 * Ni             44     -0.21409             -0.02687              0.06654         *
 * Ni             45      0.04639              0.05827              0.04247         *
 * Ni             46      0.17336             -0.15975             -0.22677         *
 * Ni             47     -0.04924             -0.09425             -0.11925         *
 * Ni             48     -0.08830             -0.09925              0.01777         *
 * Ni             49      0.17014             -0.08952              0.06244         *
 * Ni             50     -0.13217             -0.02975              0.17095         *
 * Ni             51     -0.03025             -0.14940              0.12456         *
 * Ni             52      0.09471              0.04060             -0.20634         *
 * Ni             53      0.18892              0.14907             -0.00059         *
 * Ni             54      0.10994             -0.08035             -0.04897         *
 * Ni             55     -0.29481             -0.20503             -0.21301         *
 * Ni             56      0.12391              0.13215             -0.04573         *
 * Ni             57     -0.13605             -0.38354              0.30864         *
 * Ni             58     -0.24480             -0.06245              0.19107         *
 * Ni             59     -0.03043             -0.18680             -0.04508         *
 * Ni             60     -0.20518             -0.02925             -0.00994         *
 * Ni             61     -0.30236              0.36422              0.20464         *
 * Ni             62      0.06326              0.01175             -0.04831         *
 * Ni             63      0.04732             -0.00393             -0.10949         *
 * Ni             64      0.03215             -0.00170              0.00037         *
 * Ni             65     -0.04205              0.09812             -0.08353         *
 * Ni             66     -0.04270             -0.03068              0.16197         *
 * Ni             67      0.05002             -0.01868              0.14558         *
 * Ni             68      0.01585             -0.11088             -0.12689         *
 * Ni             69      0.02229              0.23359             -0.12839         *
 * Ni             70      0.00086              0.05047              0.07799         *
 * Ni             71     -0.08694              0.00889              0.14111         *
 * Ni             72      0.06299              0.06714              0.06062         *
 * Ni             73      0.16063              0.25383              0.28595         *
 * Ni             74     -0.13395             -0.18977              0.01094         *
 * Ni             75     -0.36269             -0.28274              0.13104         *
 * Ni             76      0.02025             -0.22208             -0.11013         *
 * Ni             77     -0.28539             -0.18375              0.19449         *
 * Ni             78      0.08199             -0.07908             -0.08417         *
 * Ni             79     -0.04778              0.09371             -0.10183         *
 * Ni             80      0.02478              0.01425             -0.04329         *
 * Ni             81     -0.01860              0.06649             -0.01787         *
 * Ni             82     -0.04678              0.06824              0.04912         *
 * Ni             83     -0.27999              0.18317             -0.03758         *
 * Ni             84      0.01823             -0.02465             -0.02398         *
 * Ni             85      0.09489             -0.08098             -0.07199         *
 * Ni             86      0.16638              0.07588             -0.03616         *
 * Ni             87      0.04229              0.14653             -0.06310         *
 * Ni             88     -0.09500             -0.07859              0.05769         *
 * Ni             89     -0.00338             -0.05625             -0.04538         *
 * Ni             90      0.02246              0.34919             -0.37388         *
 * Ni             91     -0.06712              0.04258             -0.01953         *
 * Ni             92     -0.04770             -0.06315              0.03905         *
 * Ni             93     -0.06717             -0.09278              0.33279         *
 * Ni             94      0.37102             -0.16291              0.11717         *
 * Ni             95     -0.50079              0.49972              0.14483         *
 * Ni             96     -0.07724              0.02765              0.08011         *
 * Ni             97      0.14312              0.07475             -0.00273         *
 * Ni             98     -0.16905             -0.04721             -0.13002         *
 * Ni             99      0.12811              0.20898              0.27540         *
 * Ni            100     -0.00493             -0.15268              0.15388         *
 * Ni            101      0.00162              0.00697             -0.16705         *
 * Ni            102      0.04102             -0.13606              0.06356         *
 * Ni            103      0.11109              0.08669              0.29241         *
 * Ni            104     -0.23361             -0.11411              0.21674         *
 * Ni            105     -0.05821              0.15975              0.00247         *
 * Ni            106      0.01295              0.02990             -0.27403         *
 * Ni            107     -0.05991             -0.30712             -0.46457         *
 * Ni            108     -0.48294             -0.70868              0.09189         *
 * Ni            109     -0.01954              0.13250             -0.20688         *
 * Ni            110      0.16298              0.11956              0.02901         *
 * Ni            111      0.06470              0.03333             -0.06093         *
 * Ni            112      0.14455             -0.09188              0.03522         *
 * Ni            113     -0.12547             -0.19884              0.19073         *
 * Ni            114     -0.02314              0.00584              0.01817         *
 * Ni            115      0.09961              0.11121             -0.07985         *
 * Ni            116      0.04916              0.27525             -0.20053         *
 * Ni            117     -0.01193             -0.13344              0.05634         *
 * Ni            118     -0.15937             -0.02550              0.17856         *
 * Ni            119      0.18306              0.10500              0.13348         *
 * Ni            120      0.04419              0.03389             -0.04998         *
 * Ni            121     -0.16391              0.10147              0.03327         *
 * Ni            122      0.12538             -0.13572              0.06733         *
 * Ni            123      0.09428              0.08535             -0.08236         *
 * Ni            124     -0.05863              0.12291              0.06701         *
 * Ni            125      0.10061             -0.05813             -0.00329         *
 * Ni            126      0.50825             -0.43296             -0.07844         *
 * Ni            127     -0.09420              0.01156              0.02380         *
 * Ni            128     -0.10193             -0.10167             -0.05357         *
 * Ni            129      0.02140             -0.07601             -0.04421         *
 * Ni            130     -0.14773              0.03908              0.04763         *
 * Ni            131      0.27297              0.04643              0.01892         *
 * Ni            132      0.05362              0.15055             -0.00689         *
 * Ni            133     -0.01517             -0.05220              0.04427         *
 * Ni            134      0.26204              0.06604              0.10892         *
 * Ni            135     -0.19176              0.02176              0.01109         *
 * Ni            136      0.09645             -0.48087             -0.52514         *
 * Ni            137     -0.15064              0.09836             -0.08374         *
 * Ni            138      0.25420              0.01018              0.14179         *
 * Ni            139     -0.05913              0.10495              0.11135         *
 * Ni            140     -0.06880              0.06659             -0.02495         *
 * Ni            141      0.04318              0.30196             -0.33666         *
 * Ni            142      0.09407              0.05351              0.14586         *
 * Ni            143      0.09155             -0.00068              0.11703         *
 * Ni            144     -0.07224             -0.00298              0.07046         *
 * Ni            145     -0.28453              0.28077             -0.15787         *
 * Ni            146      0.10492             -0.07372              0.17445         *
 * Ni            147      0.14549             -0.14751             -0.11390         *
 * Ni            148      0.19874             -0.04414             -0.05235         *
 * Ni            149     -0.24023             -0.15592             -0.10553         *
 * Ni            150     -0.23685             -0.17118              0.25240         *
 * Ni            151      0.25407              0.00925             -0.01166         *
 * Ni            152      0.03837             -0.09525              0.12595         *
 * Ni            153     -0.09835             -0.03025              0.05761         *
 * Ni            154     -0.00118             -0.02066              0.03798         *
 * Ni            155      0.17028              0.00018              0.13441         *
 * Ni            156     -0.01564             -0.10443             -0.04208         *
 * Ni            157     -0.03477             -0.13785              0.16407         *
 * Ni            158     -0.02752              0.03418              0.01632         *
 * Ni            159     -0.02333              0.06809              0.10069         *
 * Ni            160     -0.02635              0.03331             -0.04013         *
 * Ni            161      0.09986              0.06440             -0.02123         *
 * Ni            162      0.05635              0.07148             -0.08963         *
 * Ni            163      0.05688              0.04328             -0.05599         *
 * Ni            164      0.02260              0.06009              0.15705         *
 * Ni            165     -0.06587              0.05739              0.03156         *
 * Ni            166     -0.00661              0.02161             -0.00102         *
 * Ni            167     -0.02808              0.04911              0.05339         *
 * Ni            168      0.08247             -0.00042              0.11296         *
 * Ni            169     -0.12481             -0.01783              0.13640         *
 * Ni            170      0.05531             -0.06000             -0.09975         *
 * Ni            171     -0.10574              0.05747             -0.07836         *
 * Ni            172     -0.07960              0.09640             -0.03735         *
 * Ni            173      0.02230              0.15109              0.15924         *
 * Ni            174     -0.04089              0.07476              0.02613         *
 * Ni            175      0.16431             -0.07120              0.11168         *
 * Ni            176     -0.18954             -0.05073              0.01767         *
 * Ni            177      0.03976              0.00586              0.01408         *
 * Ni            178     -0.13801             -0.12744              0.05254         *
 * Ni            179      0.08860             -0.06986              0.08560         *
 * Ni            180     -0.16583              0.14267              0.00768         *
 * Ni            181      0.03178             -0.19667             -0.11197         *
 * Ni            182     -0.02237             -0.01471              0.06518         *
 * Ni            183      0.05563              0.11206             -0.10343         *
 * Ni            184     -0.06183              0.09288             -0.09177         *
 * Ni            185     -0.06547              0.03199             -0.02095         *
 * Ni            186      0.13082             -0.08544             -0.03696         *
 * Ni            187     -0.03331             -0.04933              0.14264         *
 * Ni            188     -0.02541              0.27479             -0.04440         *
 * Ni            189      0.20471             -0.24180              0.19776         *
 * Ni            190     -0.35373              0.32124              0.19762         *
 * Ni            191      0.08569              0.07429             -0.14957         *
 * Ni            192     -0.04737             -0.04164             -0.18473         *
 *                                                                                  *
 ************************************************************************************
 
 ***************** Stress Tensor *****************
 *                                               *
 *          Cartesian components (GPa)           *
 * --------------------------------------------- *
 *             x             y             z     *
 *                                               *
 *  x     -0.140903      0.270699     -0.421084  *
 *  y      0.270699      0.182360     -0.117204  *
 *  z     -0.421084     -0.117204     -1.075160  *
 *                                               *
 *  Pressure:    0.3446                          *
 *                                               *
 *************************************************
 EXP precond LBFGS => estimated nearest neighbor distance :  2.555       A
 EXP precond LBFGS => estimated cutoff distance :  5.110       A
 
 ************************************** Forces **************************************
 *                                                                                  *
 *                           Cartesian components (eV/A)                            *
 * -------------------------------------------------------------------------------- *
 *                         x                    y                    z              *
 *                                                                                  *
 * Al              1     -0.61995             -0.14582             -0.68523         *
 * Al              2      0.73939              1.45366             -0.73171         *
 * Al              3      0.04746             -0.74193             -0.66658         *
 * Al              4      0.76367             -1.58679             -0.75394         *
 * Al              5     -2.29523             -0.78003             -0.04894         *
 * Al              6     -0.01451             -0.00485              1.55614         *
 * Al              7      0.77142             -0.64305              0.02777         *
 * Al              8     -0.77192              1.54455              0.93173         *
 * Al              9      0.82144             -0.00049              0.74333         *
 * Al             10     -1.59522              0.05384             -1.54829         *
 * Al             11     -0.00105              0.73524              0.71351         *
 * Al             12      0.77701             -1.53661              0.70832         *
 * Al             13      1.62904             -0.07806              0.05496         *
 * Al             14     -0.81939              0.63484              0.04233         *
 * Al             15     -0.01063              0.80580              0.82643         *
 * Al             16      0.74136             -0.80299             -0.00346         *
 * Al             17     -0.71286              0.02273              0.76739         *
 * Al             18      0.63974              0.57648              1.35987         *
 * Al             19     -0.02214              0.73653              0.87668         *
 * Al             20     -2.23758              0.20325              0.59639         *
 * Al             21     -0.77879             -0.72138              1.57952         *
 * Al             22      0.12519              0.67309             -2.10864         *
 * Al             23      1.40435              2.12123              0.64150         *
 * Al             24      0.01715             -1.52446             -0.02030         *
 * Al             25      1.55742              1.53740             -0.11901         *
 * Al             26     -1.52504             -0.83948              0.79349         *
 * Al             27      0.89463              0.78584              0.02045         *
 * Al             28      0.74043              1.61695             -0.77388         *
 * Al             29     -0.01259             -1.50750              0.13026         *
 * Al             30      0.03850              0.08708              1.63136         *
 * Al             31      0.50890             -0.58753             -1.40023         *
 * Al             32     -0.58065             -2.94648              0.71936         *
 * Al             33      0.86745             -0.02845             -0.78773         *
 * Al             34     -0.04106              0.71187             -0.72750         *
 * Al             35     -0.01239             -0.06516             -0.03030         *
 * Al             36     -0.09480             -0.77933              0.72251         *
 * Al             37     -0.14780             -2.30036             -0.72190         *
 * Al             38     -2.13334              1.32000             -0.66537         *
 * Al             39      0.75379             -0.84741             -1.52638         *
 * Al             40     -1.52027             -0.08563              0.02319         *
 * Al             41      0.04488             -0.76693             -0.84776         *
 * Al             42      0.79591              1.50337             -0.83947         *
 * Al             43     -0.72712             -0.66841             -1.62198         *
 * Al             44      1.41364             -0.58415             -2.18068         *
 * Al             45      0.06622             -0.00272             -0.15732         *
 * Al             46     -0.79252              0.93256              0.08024         *
 * Al             47      0.03545              0.10584             -0.09468         *
 * Al             48     -2.33259             -0.00344              0.75099         *
 * Al             49     -0.11483              0.71437              0.71513         *
 * Al             50      0.81534             -0.78194             -0.06614         *
 * Al             51     -0.75309             -0.79663              1.44363         *
 * Al             52      0.74504             -0.05068             -0.83002         *
 * Al             53      0.02048             -0.05190             -0.00500         *
 * Al             54     -0.03677             -0.12239              1.48204         *
 * Al             55      0.82848             -0.80389              1.54636         *
 * Al             56      0.77540              1.61085             -0.75164         *
 * Al             57      0.73175              0.09406              0.79114         *
 * Al             58     -0.04649              0.79136             -0.75244         *
 * Al             59     -0.79021              0.03542              0.73256         *
 * Al             60      2.33597             -0.72258              0.02051         *
 * Al             61      0.88990              0.08117              0.71224         *
 * Al             62     -2.32956              0.78615             -0.07273         *
 * Al             63      1.46987             -0.02550             -1.51441         *
 * Al             64     -0.81711              1.48867             -0.79316         *
 * Ni              1      0.08167             -0.04796             -0.11983         *
 * Ni              2     -0.00973              0.01416             -0.05479         *
 * Ni              3     -0.18169              0.07607             -0.02060         *
 * Ni              4     -0.08820             -0.05448              0.09834         *
 * Ni              5     -0.00305             -0.10651              0.02397         *
 * Ni              6      0.22665             -0.02593              0.10624         *
 * Ni              7     -0.07349              0.19833              0.09415         *
 * Ni              8      0.29929              0.27355             -0.31570         *
 * Ni              9      0.20071              0.01727             -0.29205         *
 * Ni             10      0.07431              0.19263             -0.07191         *
 * Ni             11     -0.12289             -0.01042              0.02131         *
 * Ni             12      0.10167              0.05026             -0.10663         *
 * Ni             13     -0.20164              0.00782              0.03780         *
 * Ni             14     -0.06270              0.03709             -0.10843         *
 * Ni             15      0.03862             -0.02310              0.07790         *
 * Ni             16      0.26060              0.18607             -0.08349         *
 * Ni             17     -0.05511              0.15530             -0.18779         *
 * Ni             18      0.47500             -0.36971             -0.11455         *
 * Ni             19     -0.01005              0.10040             -0.14591         *
 * Ni             20     -0.19650              0.23413             -0.04300         *
 * Ni             21     -0.09936              0.14256             -0.03355         *
 * Ni             22      0.12285             -0.12720             -0.13197         *
 * Ni             23      0.04232              0.10549             -0.00198         *
 * Ni             24     -0.05089              0.08777             -0.07660         *
 * Ni             25     -0.04699              0.10476             -0.01152         *
[...]
             Al 43 -- Ni 77                  0.15        2.60241
            Ni 53  -- Ni 59                 -0.01        2.60249
             Al 24 -- Al 26                  0.25        2.60265
             Al 13 -- Ni 138                 0.20        2.60300
            Ni 2   -- Ni 52                  0.00        2.60343
            Ni 10  -- Ni 39                  0.10        2.60351
             Al 43 -- Ni 72                  0.18        2.60367
             Al 42 -- Ni 117                 0.15        2.60411
             Al 17 -- Ni 110                 0.18        2.60419
            Ni 64  -- Ni 65                  0.05        2.60441
            Ni 26  -- Ni 166                 0.06        2.60472
            Ni 121 -- Ni 122                 0.01        2.60473
            Ni 191 -- Ni 192                 0.10        2.60522
             Al 23 -- Ni 145                 0.19        2.60538
            Ni 62  -- Ni 77                  0.04        2.60545
            Ni 47  -- Ni 49                  0.05        2.60548
            Ni 7   -- Ni 20                  0.04        2.60551
             Al 6  -- Al 7                   0.25        2.60574
            Ni 159 -- Ni 162                 0.05        2.60576
            Ni 152 -- Ni 165                 0.05        2.60582
            Ni 89  -- Ni 95                  0.07        2.60607
            Ni 174 -- Ni 179                 0.05        2.60608
             Al 59 -- Ni 66                  0.16        2.60610
            Ni 97  -- Ni 152                 0.00        2.60610
             Al 34 -- Al 47                  0.23        2.60620
            Ni 65  -- Ni 113                 0.02        2.60626
            Ni 114 -- Ni 115                -0.01        2.60638
            Ni 25  -- Ni 77                  0.10        2.60643
             Al 27 -- Ni 191                 0.17        2.60694
             Al 56 -- Ni 11                  0.17        2.60713
             Al 36 -- Ni 57                  0.15        2.60720
            Ni 76  -- Ni 89                  0.04        2.60948
            Ni 32  -- Ni 33                 -0.01        2.60956
             Al 2  -- Ni 46                  0.17        2.61018
            Ni 101 -- Ni 185                 0.11        2.61023
            Ni 90  -- Ni 134                 0.02        2.61056
             Al 17 -- Ni 108                 0.19        2.61117
            Ni 167 -- Ni 169                 0.05        2.61149
             Al 17 -- Ni 119                 0.17        2.61188
            Ni 81  -- Ni 85                  0.07        2.61202
             Al 12 -- Ni 138                 0.19        2.61202
            Ni 59  -- Ni 60                  0.01        2.61225
            Ni 21  -- Ni 22                  0.00        2.61255
            Ni 3   -- Ni 17                  0.06        2.61263
            Ni 45  -- Ni 46                  0.02        2.61337
            Ni 61  -- Ni 99                  0.03        2.61345
            Ni 10  -- Ni 47                  0.01        2.61365
            Ni 47  -- Ni 93                  0.13        2.61385
             Al 19 -- Ni 126                 0.16        2.61391
            Ni 131 -- Ni 139                 0.00        2.61450
            Ni 55  -- Ni 57                  0.02        2.61455
             Al 54 -- Ni 40                  0.19        2.61477
            Ni 122 -- Ni 175                 0.03        2.61484
            Ni 58  -- Ni 59                  0.07        2.61504
            Ni 98  -- Ni 141                 0.03        2.61508
            Ni 148 -- Ni 159                 0.07        2.61530
             Al 58 -- Ni 16                  0.15        2.61554
            Ni 22  -- Ni 74                 -0.02        2.61616
            Ni 72  -- Ni 127                -0.02        2.61659
             Al 1  -- Ni 166                 0.15        2.61672
             Al 4  -- Ni 192                 0.14        2.61807
            Ni 59  -- Ni 100                 0.01        2.61890
             Al 33 -- Ni 95                  0.16        2.61945
             Al 42 -- Ni 77                  0.16        2.61987
            Ni 21  -- Ni 74                  0.03        2.61998
             Al 10 -- Ni 150                 0.15        2.62008
            Ni 164 -- Ni 165                 0.04        2.62086
            Ni 81  -- Ni 112                 0.07        2.62099
            Ni 107 -- Ni 155                -0.00        2.62104
            Ni 185 -- Ni 189                 0.10        2.62137
            Ni 73  -- Ni 74                  0.04        2.62196
            Ni 52  -- Ni 61                  0.05        2.62227
             Al 31 -- Ni 54                  0.17        2.62277
             Al 64 -- Ni 2                   0.16        2.62283
            Ni 68  -- Ni 112                 0.05        2.62416
             Al 25 -- Ni 61                  0.17        2.62500
            Ni 129 -- Ni 182                 0.07        2.62506
            Ni 58  -- Ni 73                  0.12        2.62518
            Ni 33  -- Ni 82                  0.02        2.62528
             Al 18 -- Al 19                  0.24        2.62553
             Al 19 -- Ni 125                 0.15        2.62718
            Ni 49  -- Ni 190                 0.01        2.62750
             Al 51 -- Ni 187                 0.13        2.62782
            Ni 41  -- Ni 42                  0.04        2.62799
            Ni 42  -- Ni 92                  0.03        2.62818
             Al 39 -- Ni 96                  0.15        2.62821
            Ni 104 -- Ni 105                 0.01        2.62838
            Ni 150 -- Ni 152                 0.05        2.62847
            Ni 51  -- Ni 99                  0.07        2.62874
             Al 27 -- Ni 138                 0.17        2.62960
            Ni 108 -- Ni 116                 0.08        2.62963
             Al 8  -- Ni 154                 0.15        2.62999
            Ni 13  -- Ni 17                  0.04        2.63064
            Ni 18  -- Ni 70                  0.08        2.63070
            Ni 104 -- Ni 115                 0.03        2.63072
            Ni 176 -- Ni 192                -0.03        2.63097
             Al 45 -- Al 50                  0.27        2.63156
            Ni 41  -- Ni 92                  0.05        2.63216
             Al 22 -- Ni 108                 0.21        2.63336
             Al 15 -- Ni 119                 0.17        2.63353
             Al 17 -- Ni 121                 0.17        2.63416
             Al 60 -- Al 61                  0.25        2.63418
            Ni 10  -- Ni 49                  0.11        2.63426
            Ni 4   -- Ni 40                  0.07        2.63439
             Al 9  -- Al 10                  0.24        2.63459
             Al 12 -- Ni 136                 0.17        2.63463
            Ni 16  -- Ni 55                  0.10        2.63480
             Al 35 -- Ni 137                 0.09        2.63499
            Ni 69  -- Ni 115                 0.06        2.63513
             Al 46 -- Al 47                  0.25        2.63527
            Ni 143 -- Ni 154                 0.04        2.63533
            Ni 2   -- Ni 88                  0.03        2.63611
             Al 52 -- Ni 41                  0.17        2.63623
            Ni 148 -- Ni 161                 0.05        2.63696
            Ni 30  -- Ni 184                 0.00        2.63699
            Ni 145 -- Ni 161                -0.05        2.63737
             Al 9  -- Ni 138                 0.15        2.63747
             Al 43 -- Ni 73                  0.15        2.63749
             Al 36 -- Ni 103                 0.15        2.63825
            Ni 87  -- Ni 89                  0.06        2.63832
             Al 40 -- Ni 81                  0.17        2.63936
            Ni 55  -- Ni 71                  0.09        2.63939
             Al 4  -- Ni 189                 0.15        2.63997
            Ni 95  -- Ni 126                 0.06        2.64054
            Ni 55  -- Ni 65                  0.10        2.64074
            Ni 144 -- Ni 145                 0.09        2.64122
            Ni 126 -- Ni 139                 0.04        2.64129
            Ni 98  -- Ni 102                 0.04        2.64161
            Ni 33  -- Ni 35                  0.02        2.64193
            Ni 42  -- Ni 94                  0.09        2.64213
            Ni 54  -- Ni 61                  0.13        2.64265
            Ni 135 -- Ni 189                 0.07        2.64401
            Ni 13  -- Ni 67                 -0.00        2.64414
             Al 9  -- Al 27                  0.25        2.64442
             Al 21 -- Ni 107                 0.15        2.64443
            Ni 5   -- Ni 17                  0.00        2.64443
            Ni 108 -- Ni 173                 0.04        2.64468
            Ni 138 -- Ni 188                 0.02        2.64478
             Al 15 -- Ni 90                  0.17        2.64578
            Ni 69  -- Ni 113                 0.06        2.64614
             Al 28 -- Ni 103                 0.15        2.64626
             Al 8  -- Ni 107                 0.16        2.64714
            Ni 97  -- Ni 105                -0.03        2.64782
             Al 29 -- Ni 149                 0.14        2.64806
            Ni 90  -- Ni 130                 0.08        2.64815
             Al 16 -- Ni 78                  0.16        2.64831
             Al 46 -- Ni 58                  0.14        2.64836
            Ni 104 -- Ni 152                -0.00        2.64841
             Al 1  -- Ni 180                 0.16        2.64886
             Al 33 -- Al 34                  0.24        2.64900
            Ni 83  -- Ni 85                  0.04        2.64905
            Ni 104 -- Ni 165                 0.04        2.64916
            Ni 76  -- Ni 87                  0.02        2.64979
             Al 36 -- Al 49                  0.24        2.65066
             Al 33 -- Ni 96                  0.16        2.65079
             Al 16 -- Al 40                  0.24        2.65177
             Al 6  -- Al 26                  0.26        2.65333
             Al 13 -- Al 27                  0.24        2.65343
             Al 7  -- Al 58                  0.22        2.65435
            Ni 75  -- Ni 80                  0.05        2.65519
            Ni 145 -- Ni 149                 0.04        2.65527
            Ni 108 -- Ni 157                -0.01        2.65560
            Ni 95  -- Ni 131                -0.00        2.65583
             Al 28 -- Al 47                  0.23        2.65587
            Ni 124 -- Ni 126                 0.09        2.65610
            Ni 9   -- Ni 44                  0.02        2.65716
            Ni 150 -- Ni 151                 0.00        2.65757
             Al 50 -- Ni 63                  0.14        2.65772
            Ni 34  -- Ni 171                 0.01        2.65818
            Ni 136 -- Ni 138                 0.05        2.65836
             Al 35 -- Al 40                  0.23        2.65954
            Ni 107 -- Ni 116                -0.01        2.66021
             Al 22 -- Al 31                  0.24        2.66025
            Ni 148 -- Ni 149                -0.05        2.66070
             Al 60 -- Ni 8                   0.16        2.66155
             Al 46 -- Ni 60                  0.15        2.66195
            Ni 91  -- Ni 94                 -0.01        2.66409
            Ni 190 -- Ni 191                 0.04        2.66447
             Al 21 -- Ni 105                 0.14        2.66530
            Ni 114 -- Ni 127                 0.05        2.66637
            Ni 44  -- Ni 46                  0.05        2.66673
             Al 41 -- Ni 119                 0.14        2.66682
            Ni 150 -- Ni 163                 0.06        2.66759
            Ni 109 -- Ni 110                -0.03        2.67018
             Al 14 -- Ni 138                 0.15        2.67023
            Ni 103 -- Ni 136                 0.06        2.67072
             Al 46 -- Ni 57                  0.15        2.67078
             Al 43 -- Al 44                  0.21        2.67090
             Al 37 -- Ni 57                  0.17        2.67101
             Al 16 -- Ni 119                 0.15        2.67193
             Al 30 -- Ni 113                 0.12        2.67205
            Ni 101 -- Ni 146                 0.04        2.67264
             Al 2  -- Al 51                  0.21        2.67450
            Ni 7   -- Ni 57                  0.03        2.67597
             Al 36 -- Al 47                  0.21        2.67623
            Ni 3   -- Ni 6                  -0.00        2.67805
             Al 34 -- Al 35                  0.18        2.67828
            Ni 75  -- Ni 120                 0.00        2.67899
             Al 36 -- Al 37                  0.22        2.67914
             Al 19 -- Ni 117                 0.15        2.67930
            Ni 98  -- Ni 146                -0.01        2.67968
            Ni 55  -- Ni 56                  0.10        2.68049
            Ni 8   -- Ni 57                  0.13        2.68055
             Al 51 -- Ni 190                 0.12        2.68057
             Al 46 -- Al 61                  0.20        2.68160
             Al 40 -- Ni 123                 0.13        2.68211
             Al 53 -- Al 54                  0.22        2.68220
            Ni 8   -- Ni 44                  0.10        2.68365
             Al 58 -- Al 59                  0.22        2.68643
             Al 28 -- Ni 106                 0.13        2.68659
             Al 13 -- Ni 106                 0.15        2.68677
             Al 35 -- Al 39                  0.20        2.68684
            Ni 190 -- Ni 192                 0.04        2.68884
             Al 49 -- Ni 103                 0.15        2.68925
             Al 12 -- Al 14                  0.21        2.68931
             Al 50 -- Ni 105                 0.15        2.69016
             Al 23 -- Al 30                  0.20        2.69195
            Ni 7   -- Ni 9                  -0.02        2.69420
             Al 33 -- Ni 60                  0.15        2.69487
             Al 14 -- Ni 124                 0.12        2.69657
             Al 27 -- Ni 106                 0.14        2.69660
             Al 48 -- Al 49                  0.20        2.69678
            Ni 18  -- Ni 71                  0.01        2.69739
            Ni 110 -- Ni 157                -0.01        2.69752
             Al 30 -- Ni 103                 0.14        2.69970
            Ni 83  -- Ni 126                 0.06        2.70138
            Ni 8   -- Ni 93                  0.12        2.70258
            Ni 108 -- Ni 109                -0.00        2.70262
             Al 4  -- Al 14                  0.20        2.70636
             Al 12 -- Al 13                  0.19        2.70682
             Al 56 -- Al 61                  0.21        2.70745
             Al 12 -- Al 35                  0.18        2.70785
             Al 1  -- Al 53                  0.21        2.70829
            Ni 135 -- Ni 136                 0.02        2.71252
             Al 10 -- Al 62                  0.20        2.71740
             Al 30 -- Al 31                  0.21        2.72193
            Ni 108 -- Ni 120                 0.05        2.72269
            Ni 107 -- Ni 169                 0.06        2.72326
             Al 29 -- Ni 148                 0.13        2.72407
             Al 13 -- Al 34                  0.19        2.72564
             Al 9  -- Al 29                  0.20        2.72665
             Al 29 -- Al 30                  0.19        2.73107
             Al 6  -- Al 23                  0.20        2.73300
             Al 2  -- Al 4                   0.21        2.73330
             Al 3  -- Al 11                  0.21        2.73743
             Al 8  -- Al 26                  0.17        2.73817
             Al 52 -- Al 54                  0.21        2.73817
             Al 20 -- Al 38                  0.20        2.73968
             Al 18 -- Al 20                  0.19        2.74020
            Ni 51  -- Ni 52                 -0.02        2.74073
             Al 21 -- Al 24                  0.17        2.74200
             Al 51 -- Al 60                  0.19        2.74363
             Al 24 -- Al 44                  0.17        2.74767
             Al 6  -- Al 8                   0.17        2.74862
             Al 26 -- Al 32                  0.18        2.75112
             Al 16 -- Al 17                  0.20        2.75150
             Al 57 -- Al 58                  0.18        2.75178
             Al 18 -- Al 42                  0.18        2.75318
             Al 48 -- Al 64                  0.18        2.75357
             Al 28 -- Al 30                  0.18        2.75462
            Ni 20  -- Ni 147                 0.01        2.75551
             Al 20 -- Al 21                  0.17        2.75619
             Al 38 -- Al 42                  0.18        2.75632
             Al 37 -- Al 63                  0.19        2.76199
             Al 50 -- Ni 73                  0.10        2.76296
             Al 31 -- Al 32                  0.21        2.76309
             Al 25 -- Al 44                  0.16        2.76376
             Al 25 -- Al 26                  0.13        2.76989
             Al 20 -- Al 24                  0.19        2.77028
             Al 4  -- Al 5                   0.18        2.77270
             Al 10 -- Al 51                  0.17        2.77497
             Al 38 -- Al 43                  0.16        2.78711
             Al 61 -- Al 62                  0.17        2.78853
             Al 15 -- Al 41                  0.19        2.79062
             Al 37 -- Al 49                  0.18        2.79784
             Al 2  -- Al 55                  0.18        2.80012
             Al 7  -- Ni 156                 0.07        2.80579
             Al 22 -- Al 23                  0.20        2.80898
             Al 12 -- Al 34                  0.12        2.81629
             Al 63 -- Al 64                  0.16        2.81845
             Al 28 -- Al 29                  0.17        2.81954
             Al 56 -- Al 62                  0.16        2.82038
             Al 24 -- Al 25                  0.16        2.82261
             Al 22 -- Al 26                  0.17        2.82593
             Al 38 -- Al 44                  0.18        2.82771
             Al 23 -- Al 31                  0.18        2.83225
             Al 6  -- Al 32                  0.14        2.83347
             Al 5  -- Al 55                  0.17        2.83407
             Al 2  -- Al 5                   0.14        2.83502
             Al 18 -- Al 44                  0.21        2.84365
             Al 39 -- Al 40                  0.14        2.84545
             Al 18 -- Al 38                  0.14        2.85212
             Al 48 -- Al 63                  0.16        2.85666
             Al 37 -- Al 48                  0.12        2.89054
             Al 10 -- Al 60                  0.11        2.90156
             Al 20 -- Al 44                  0.16        2.91933
             Al 22 -- Al 32                  0.11        2.96421
             Al 60 -- Al 62                  0.10        2.98112
======================================================================
 

Writing analysis data to castep.castep_bin

Writing model to castep.check
 
 A BibTeX formatted list of references used in this run has been written to 
 castep.bib
 
Initialisation time =     14.29 s
Calculation time    =  26721.05 s
Finalisation time   =      2.87 s
Total time          =  26738.21 s
Peak Memory Use     = 8341600 kB
  
Overall parallel efficiency rating: Good (78%)                                  
  
Data was distributed by:-
G-vector (48-way); efficiency rating: Good (79%)                                
