 +-------------------------------------------------+
 |                                                 |
 |      CCC   AA    SSS  TTTTT  EEEEE  PPPP        |
 |     C     A  A  S       T    E      P   P       |
 |     C     AAAA   SS     T    EEE    PPPP        |
 |     C     A  A     S    T    E      P           |
 |      CCC  A  A  SSS     T    EEEEE  P           |
 |                                                 |
 +-------------------------------------------------+
 |                                                 |
 | Welcome to Academic Release CASTEP version 22.11|
 | Ab Initio Total Energy Program                  |
 |                                                 |
 | Authors:                                        |
 | M. Segall, M. Probert, C. Pickard, P. Hasnip,   |
 | S. Clark, K. Refson, J. R. Yates, M. Payne      |
 |                                                 |
 | Contributors:                                   |
 | P. Lindan, P. Haynes, J. White, V. Milman,      |
 | N. Govind, M. Gibson, P. Tulip, V. Cocula,      |
 | B. Montanari, D. Quigley, M. Glover,            |
 | L. Bernasconi, A. Perlov, M. Plummer,           |
 | E. McNellis, J. Meyer, J. Gale, D. Jochym       |
 | J. Aarons, B. Walker, R. Gillen, D. Jones       |
 | T. Green, I. J. Bush, C. J. Armstrong,          |
 | E. J. Higgins, E. L. Brown, M. S. McFly,        |
 | J. Wilkins, B-C. Shih, P. J. P. Byrne,          |
 | R. J. Maurer, J. C. Womack, J. Dziedzic,        |
 | A. Bartok-Partay, L. LeBlanc, T. K. Stenczel,   |
 | J. Kermode, S. Sturniolo, B. Shi, B. Durham     |
 | M. Evans, M. J. Smith                           |
 |                                                 |
 | Copyright (c) 2000 - 2021                       |
 |                                                 |
 |     Distributed under license from Cambridge    |
 |     Enterprise for academic use only.           |
 |                                                 |
 | Please cite                                     |
 |                                                 |
 |     "First principles methods using CASTEP"     |
 |                                                 |
 |         Zeitschrift fuer Kristallographie       |
 |           220(5-6) pp. 567-570 (2005)           |
 |                                                 |
 | S. J. Clark, M. D. Segall, C. J. Pickard,       |
 | P. J. Hasnip, M. J. Probert, K. Refson,         |
 | M. C. Payne                                     |
 |                                                 |
 |       in all publications arising from          |
 |              your use of CASTEP                 |
 |                                                 |
 +-------------------------------------------------+
 |                                                 |
 |              http://www.castep.org              |
 |                                                 |
 +-------------------------------------------------+
 
 
 
 Compiled for linux_x86_64_ifort on Wed, 18 Jan 2023 15:42:19 +0000
 from code version b807d1bba+  Castep221_branch  Wed Sep 14 11:18:35 2022 +0100
 Compiler: Intel Fortran 19.0.5.281; Optimisation: fast
 MATHLIBS: Intel MKL(2019.0.5) (LAPACK version 3.7.0)
 FFT Lib : mkl
 Fundamental constants values: CODATA 2014
 
 Run started: Wed, 26 Apr 2023 16:51:38 +0100
 
 Atomic calculation performed for Al: 1s2 2s2 2p6 3s2 3p1
 
 Converged in 52 iterations to an ae energy of -6606.982 eV
 
   ============================================================                
   | Pseudopotential Report - Date of generation 26-04-2023   |                
   ------------------------------------------------------------                
   | Element: Al Ionic charge:  3.00 Level of theory: RPBE    |                
   | Atomic Solver: Koelling-Harmon                           |                
   |                                                          |                
   |               Reference Electronic Structure             |                
   |         Orbital         Occupation         Energy        |                
   |            3s              2.000           -0.284        |                
   |            3p              1.000           -0.100        |                
   |                                                          |                
   |                 Pseudopotential Definition               |                
   |        Beta     l      e      Rc     scheme   norm       |                
   |          1      0   -0.284   2.192     qc      0         |                
   |          2      0    0.250   2.192     qc      0         |                
   |          3      1   -0.100   2.192     qc      0         |                
   |          4      1    0.250   2.192     qc      0         |                
   |          5      2    0.000   2.000     qc      0         |                
   |          6      2    0.250   2.000     qc      0         |                
   |         loc     3    0.000   2.192     pn      0         |                
   |                                                          |                
   | Augmentation charge Rinner = 1.398                       |                
   | Partial core correction Rc = 1.398                       |                
   ------------------------------------------------------------                
   | "3|2.2|2.2|1.4|4|5|5|30:31:32U2U2"                       |                
   ------------------------------------------------------------                
   |      Author: Chris J. Pickard, Cambridge University      |                
   ============================================================                
 
 Atomic calculation performed for Ni: 1s2 2s2 2p6 3s2 3p6 3d8 4s2
 
 Converged in 109 iterations to an ae energy of -41381.414 eV
 
   ============================================================                
   | Pseudopotential Report - Date of generation 26-04-2023   |                
   ------------------------------------------------------------                
   | Element: Ni Ionic charge: 10.00 Level of theory: RPBE    |                
   | Atomic Solver: Koelling-Harmon                           |                
   |                                                          |                
   |               Reference Electronic Structure             |                
   |         Orbital         Occupation         Energy        |                
   |            3d              8.000           -0.324        |                
   |            4s              2.000           -0.204        |                
   |                                                          |                
   |                 Pseudopotential Definition               |                
   |        Beta     l      e      Rc     scheme   norm       |                
   |          1      0   -0.204   2.401     qc      0         |                
   |          2      0    0.250   2.401     qc      0         |                
   |          3      1    0.000   2.401     qc      0         |                
   |          4      1    0.250   2.401     qc      0         |                
   |          5      2   -0.324   1.999     qc      0         |                
   |          6      2    0.250   1.999     qc      0         |                
   |         loc     3    0.000   2.401     pn      0         |                
   |                                                          |                
   | Augmentation charge Rinner = 1.001                       |                
   | Partial core correction Rc = 1.001                       |                
   ------------------------------------------------------------                
   | "3|2.4|2.4|1.0|8|9|10|40:41:32U2U2(qc=5.5)"              |                
   ------------------------------------------------------------                
   |      Author: Chris J. Pickard, Cambridge University      |                
   ============================================================                
 
 Pseudo atomic calculation performed for Al 3s2 3p1
 
 Converged in 13 iterations to a total energy of -107.6593 eV
 
 Pseudo atomic calculation performed for Ni 3d8 4s2
 
 Converged in 41 iterations to a total energy of -1369.7890 eV
 Calculation parallelised over 128 processes.
 Data is distributed by G-vector(128-way)

 ************************************ Title ************************************
 

 ***************************** General Parameters ******************************
  
 output verbosity                               : normal  (1)
 write checkpoint data to                       : castep.check
 type of calculation                            : geometry optimization
 stress calculation                             : off
 density difference calculation                 : off
 electron localisation func (ELF) calculation   : off
 Hirshfeld analysis                             : off
 polarisation (Berry phase) analysis            : off
 molecular orbital projected DOS                : off
 deltaSCF calculation                           : off
 unlimited duration calculation
 timing information                             : on
 memory usage estimate                          : on
 write extra output files                       : on
 write final potential to formatted file        : off
 write final density to formatted file          : off
 write BibTeX reference list                    : on
 write OTFG pseudopotential files               : on
 write electrostatic potential file             : on
 write bands file                               : on
 checkpoint writing                             : both castep_bin and check files
  
 output         length unit                     : A
 output           mass unit                     : amu
 output           time unit                     : ps
 output         charge unit                     : e
 output           spin unit                     : hbar/2
 output         energy unit                     : eV
 output          force unit                     : eV/A
 output       velocity unit                     : A/ps
 output       pressure unit                     : GPa
 output     inv_length unit                     : 1/A
 output      frequency unit                     : cm-1
 output force constant unit                     : eV/A**2
 output         volume unit                     : A**3
 output   IR intensity unit                     : (D/A)**2/amu
 output         dipole unit                     : D
 output         efield unit                     : eV/A/e
 output        entropy unit                     : J/mol/K
 output    efield chi2 unit                     : pm/V
  
 wavefunctions paging                           : none
 random number generator seed                   : randomised (165140363)
 data distribution                              : optimal for this architecture
 optimization strategy                          : maximize speed(+++)

 *********************** Exchange-Correlation Parameters ***********************
  
 using functional                               : revised Perdew Burke Ernzerhof
 relativistic treatment                         : Koelling-Harmon
 DFT+D: Semi-empirical dispersion correction    : off

 ************************* Pseudopotential Parameters **************************
  
 pseudopotential representation                 : reciprocal space
 <beta|phi> representation                      : reciprocal space
 spin-orbit coupling                            : off

 **************************** Basis Set Parameters *****************************
  
 plane wave basis set cut-off                   :   900.0000   eV
 size of standard grid                          :     1.7500
 size of   fine   gmax                          :    26.8966   1/A
 finite basis set correction                    : none

 **************************** Electronic Parameters ****************************
  
 number of  electrons                           :  2046.    
 net charge of system                           :  0.000    
 treating system as non-spin-polarized
 number of bands                                :       1135

 ********************* Electronic Minimization Parameters **********************
  
 Method: Treating system as metallic with density mixing treatment of electrons,
         and number of  SD  steps               :          1
         and number of  CG  steps               :          4
  
 total energy / atom convergence tol.           : 0.1000E-05   eV
 eigen-energy convergence tolerance             : 0.2247E-06   eV
 max force / atom convergence tol.              : ignored
 convergence tolerance window                   :          3   cycles
 max. number of SCF cycles                      :        200
 number of fixed-spin iterations                :         10
 smearing scheme                                : Gaussian
 smearing width                                 : 0.2000       eV
 Fermi energy convergence tolerance             : 0.2721E-13   eV
 periodic dipole correction                     : NONE
 periodically dump wavefunctions to             : castep.wvfn
 dump wavefunctions every                       :          1   SCF cycles

 ************************** Density Mixing Parameters **************************
  
 density-mixing scheme                          : Pulay
 max. length of mixing history                  :         20
 charge density mixing amplitude                : 0.8000    
 cut-off energy for mixing                      :  900.0       eV

 *********************** Population Analysis Parameters ************************
  
 Population analysis with cutoff                :  3.000       A
 Population analysis output                     : summary and pdos components

 ********************** Geometry Optimization Parameters ***********************
  
 optimization method                            : LBFGS
 max. no. of LBFGS updates                      : unbounded
 variable cell method                           : fixed basis quality
 max. number of steps                           :         30
 estimated bulk modulus                         :  500.0       GPa
 estimated <frequency>                          :  1668.       cm-1
 geom line minimiser                            : on
 with line minimiser tolerance                  :     0.4000
 total energy convergence tolerance             : 0.2000E-04   eV/atom
        max ionic |force| tolerance             : 0.5000E-01   eV/A
 max ionic |displacement| tolerance             : 0.1000E-02   A
   max |stress component| tolerance             : 0.1000       GPa
 convergence tolerance window                   :          2   steps
 backup results every                           :          5   steps
 write geom trajectory file                     : on

 *******************************************************************************
  
 
                           -------------------------------
                                      Unit Cell
                           -------------------------------
        Real Lattice(A)                      Reciprocal Lattice(1/A)
    14.4648280     0.0000000     0.0000000        0.434376773   0.000000000   0.000000000
     0.0000000    14.4648280     0.0000000        0.000000000   0.434376773   0.000000000
     0.0000000     0.0000000    14.4648280        0.000000000   0.000000000   0.434376773
 
                       Lattice parameters(A)       Cell Angles
                    a =     14.464828          alpha =   90.000000
                    b =     14.464828          beta  =   90.000000
                    c =     14.464828          gamma =   90.000000
 
                       Current cell volume =          3026.494030       A**3
                                   density =             4.190844   AMU/A**3
                                           =             6.959059     g/cm^3
 
                           -------------------------------
                                     Cell Contents
                           -------------------------------
                         Total number of ions in cell =  255
                      Total number of species in cell =    2
                        Max number of any one species =  183
 
            xxxxxxxxxxxxxxxxxxxxxxxxxxxxxxxxxxxxxxxxxxxxxxxxxxxxxxxxxxxx
            x  Element    Atom        Fractional coordinates of atoms  x
            x            Number           u          v          w      x
            x----------------------------------------------------------x
            x  Al           1         0.943655   0.062171   0.691801   x 
            x  Al           2         0.942609   0.313792   0.691671   x 
            x  Al           3         0.947398   0.563413   0.685874   x 
            x  Al           4         0.944144   0.811652   0.690752   x 
            x  Al           5         0.942289   0.060256   0.940268   x 
            x  Al           6         0.941946   0.314569   0.940252   x 
            x  Al           7         0.949302   0.564955   0.941808   x 
            x  Al           8         0.945887   0.810676   0.937322   x 
            x  Al           9         0.944538   0.061496   0.189444   x 
            x  Al          10         0.943023   0.313447   0.188058   x 
            x  Al          11         0.946545   0.562588   0.194059   x 
            x  Al          12         0.948994   0.811799   0.196295   x 
            x  Al          13         0.945496   0.062653   0.440539   x 
            x  Al          14         0.943730   0.312563   0.441481   x 
            x  Al          15         0.944029   0.562249   0.440244   x 
            x  Al          16         0.944772   0.812576   0.439464   x 
            x  Al          17         0.701263   0.938867   0.561459   x 
            x  Al          18         0.428016   0.809968   0.438236   x 
            x  Al          19         0.563681   0.944541   0.435465   x 
            x  Al          20         0.176151   0.929680   0.808651   x 
            x  Al          21         0.194670   0.809937   0.440208   x 
            x  Al          22         0.172263   0.569168   0.440959   x 
            x  Al          23         0.315422   0.933421   0.682936   x 
            x  Al          24         0.053109   0.819155   0.563134   x 
            x  Al          25         0.695558   0.688158   0.566662   x 
            x  Al          26         0.566544   0.684221   0.433258   x 
            x  Al          27         0.312728   0.450951   0.687310   x 
            x  Al          28         0.173921   0.434262   0.566314   x 
            x  Al          29         0.699515   0.183682   0.563660   x 
            x  Al          30         0.448751   0.437424   0.559490   x 
            x  Al          31         0.311125   0.189659   0.452193   x 
            x  Al          32         0.569362   0.941507   0.200249   x 
            x  Al          33         0.061941   0.810499   0.308433   x 
            x  Al          34         0.437832   0.564011   0.193724   x 
            x  Al          35         0.309071   0.562509   0.317979   x 
            x  Al          36         0.697466   0.432711   0.322093   x 
            x  Al          37         0.564790   0.430559   0.197670   x 
            x  Al          38         0.309367   0.321486   0.313859   x 
            x  Al          39         0.072412   0.440564   0.188990   x 
            x  Al          40         0.700326   0.187920   0.316062   x 
            x  Al          41         0.690703   0.439919   0.559603   x 
            x  Al          42         0.556690   0.314645   0.057731   x 
            x  Al          43         0.553467   0.183309   0.193857   x 
            x  Al          44         0.309560   0.058580   0.311938   x 
            x  Al          45         0.065884   0.188733   0.201898   x 
            x  Al          46         0.690845   0.814386   0.939308   x 
            x  Al          47         0.812235   0.811681   0.073119   x 
            x  Al          48         0.560216   0.808272   0.811054   x 
            x  Al          49         0.440335   0.935818   0.067058   x 
            x  Al          50         0.314166   0.928724   0.933994   x 
            x  Al          51         0.804957   0.563714   0.066058   x 
            x  Al          52         0.443305   0.700545   0.068314   x 
            x  Al          53         0.573146   0.563684   0.059692   x 
            x  Al          54         0.314463   0.691004   0.938622   x 
            x  Al          55         0.697279   0.317112   0.930468   x 
            x  Al          56         0.189770   0.308642   0.936742   x 
            x  Al          57         0.320153   0.448511   0.941767   x 
            x  Al          58         0.058340   0.311393   0.060564   x 
            x  Al          59         0.697308   0.179715   0.065692   x 
            x  Al          60         0.556133   0.176171   0.931439   x 
            x  Al          61         0.189935   0.069335   0.936285   x 
            x  Al          62         0.062388   0.062811   0.066747   x 
            x  Al          63         0.560140   0.940997   0.683111   x 
            x  Al          64         0.808154   0.566930   0.815548   x 
            x  Al          65         0.565051   0.566304   0.813799   x 
            x  Al          66         0.316175   0.681643   0.677153   x 
            x  Al          67         0.181655   0.688491   0.815667   x 
            x  Al          68         0.051616   0.683435   0.690239   x 
            x  Al          69         0.557541   0.181379   0.692658   x 
            x  Al          70         0.554720   0.187925   0.440669   x 
            x  Al          71         0.695846   0.314949   0.700213   x 
            x  Al          72         0.319475   0.307928   0.807434   x 
            x  Ni           1         0.940975   0.186448   0.816429   x 
            x  Ni           2         0.940806   0.443688   0.814641   x 
            x  Ni           3         0.941031   0.684756   0.814075   x 
            x  Ni           4         0.941581   0.936271   0.815148   x 
            x  Ni           5         0.818874   0.187032   0.188744   x 
            x  Ni           6         0.939075   0.441298   0.066533   x 
            x  Ni           7         0.939585   0.687459   0.067950   x 
            x  Ni           8         0.940797   0.933327   0.066281   x 
            x  Ni           9         0.941345   0.188060   0.314188   x 
            x  Ni          10         0.940614   0.436787   0.315564   x 
            x  Ni          11         0.942620   0.686644   0.317296   x 
            x  Ni          12         0.943301   0.938035   0.316001   x 
            x  Ni          13         0.940448   0.188488   0.567133   x 
            x  Ni          14         0.941282   0.437333   0.564925   x 
            x  Ni          15         0.941702   0.688157   0.563683   x 
            x  Ni          16         0.941241   0.936668   0.565490   x 
            x  Ni          17         0.062412   0.062561   0.815370   x 
            x  Ni          18         0.062372   0.185816   0.690909   x 
            x  Ni          19         0.189763   0.187256   0.810960   x 
            x  Ni          20         0.309187   0.055535   0.811501   x 
            x  Ni          21         0.313759   0.185579   0.685961   x 
            x  Ni          22         0.186173   0.059188   0.689567   x 
            x  Ni          23         0.435754   0.182729   0.811286   x 
            x  Ni          24         0.562736   0.056951   0.811649   x 
            x  Ni          25         0.435417   0.058926   0.686434   x 
            x  Ni          26         0.688492   0.185240   0.814716   x 
            x  Ni          27         0.816704   0.059363   0.816019   x 
            x  Ni          28         0.689138   0.441099   0.813377   x 
            x  Ni          29         0.692078   0.061220   0.689100   x 
            x  Ni          30         0.063289   0.311715   0.817161   x 
            x  Ni          31         0.061741   0.438122   0.695356   x 
            x  Ni          32         0.193001   0.437982   0.816646   x 
            x  Ni          33         0.439900   0.316061   0.688705   x 
            x  Ni          34         0.187745   0.314410   0.692539   x 
            x  Ni          35         0.437588   0.442343   0.812204   x 
            x  Ni          36         0.689507   0.564627   0.937843   x 
            x  Ni          37         0.820768   0.315394   0.815883   x 
            x  Ni          38         0.817130   0.441049   0.689932   x 
            x  Ni          39         0.566573   0.437910   0.688833   x 
            x  Ni          40         0.061489   0.562693   0.817318   x 
            x  Ni          41         0.313771   0.569832   0.813178   x 
            x  Ni          42         0.184459   0.565130   0.687966   x 
            x  Ni          43         0.438922   0.688090   0.810652   x 
            x  Ni          44         0.690982   0.563092   0.688202   x 
            x  Ni          45         0.565242   0.689222   0.684972   x 
            x  Ni          46         0.688281   0.691075   0.812137   x 
            x  Ni          47         0.817732   0.443127   0.940197   x 
            x  Ni          48         0.817756   0.687758   0.689630   x 
            x  Ni          49         0.056861   0.810075   0.813602   x 
            x  Ni          50         0.057923   0.937258   0.688255   x 
            x  Ni          51         0.182436   0.807889   0.686339   x 
            x  Ni          52         0.310917   0.807313   0.806550   x 
            x  Ni          53         0.179551   0.688042   0.566302   x 
            x  Ni          54         0.311409   0.809803   0.564067   x 
            x  Ni          55         0.437348   0.932708   0.810269   x 
            x  Ni          56         0.689762   0.815619   0.686686   x 
            x  Ni          57         0.439852   0.811070   0.682875   x 
            x  Ni          58         0.687853   0.934184   0.812295   x 
            x  Ni          59         0.816156   0.810699   0.815162   x 
            x  Ni          60         0.817914   0.936625   0.690886   x 
            x  Ni          61         0.566882   0.814182   0.556693   x 
            x  Ni          62         0.062535   0.186839   0.939811   x 
            x  Ni          63         0.186452   0.188028   0.065122   x 
            x  Ni          64         0.311774   0.060208   0.063022   x 
            x  Ni          65         0.315101   0.186519   0.937221   x 
            x  Ni          66         0.438653   0.185043   0.062668   x 
            x  Ni          67         0.564038   0.061039   0.066088   x 
            x  Ni          68         0.433971   0.055459   0.938450   x 
            x  Ni          69         0.818987   0.058690   0.064895   x 
            x  Ni          70         0.815735   0.186166   0.938832   x 
            x  Ni          71         0.691406   0.059693   0.938604   x 
            x  Ni          72         0.064368   0.437588   0.939330   x 
            x  Ni          73         0.189605   0.438093   0.060370   x 
            x  Ni          74         0.314297   0.314487   0.062223   x 
            x  Ni          75         0.442331   0.442664   0.067299   x 
            x  Ni          76         0.435541   0.313283   0.936379   x 
            x  Ni          77         0.562027   0.438613   0.936520   x 
            x  Ni          78         0.562535   0.311362   0.815603   x 
            x  Ni          79         0.686172   0.433283   0.064377   x 
            x  Ni          80         0.939644   0.187370   0.063862   x 
            x  Ni          81         0.814940   0.313630   0.062277   x 
            x  Ni          82         0.062991   0.563454   0.064901   x 
            x  Ni          83         0.061852   0.687789   0.940949   x 
            x  Ni          84         0.188722   0.690166   0.062735   x 
            x  Ni          85         0.317243   0.568344   0.065706   x 
            x  Ni          86         0.189424   0.565357   0.940138   x 
            x  Ni          87         0.439454   0.813287   0.938795   x 
            x  Ni          88         0.442349   0.570006   0.941948   x 
            x  Ni          89         0.688231   0.690960   0.067807   x 
            x  Ni          90         0.816474   0.689091   0.942269   x 
            x  Ni          91         0.564552   0.692156   0.939718   x 
            x  Ni          92         0.061393   0.814613   0.065176   x 
            x  Ni          93         0.062496   0.939025   0.941094   x 
            x  Ni          94         0.187977   0.938361   0.061388   x 
            x  Ni          95         0.313216   0.813913   0.065491   x 
            x  Ni          96         0.186330   0.812393   0.937744   x 
            x  Ni          97         0.568084   0.817549   0.068143   x 
            x  Ni          98         0.563373   0.936818   0.937954   x 
            x  Ni          99         0.689663   0.938854   0.067630   x 
            x  Ni         100         0.816150   0.933204   0.941029   x 
            x  Ni         101         0.064523   0.060641   0.315187   x 
            x  Ni         102         0.194616   0.189165   0.318500   x 
            x  Ni         103         0.188559   0.061544   0.440318   x 
            x  Ni         104         0.313300   0.188559   0.188844   x 
            x  Ni         105         0.187715   0.062752   0.189123   x 
            x  Ni         106         0.435693   0.059529   0.190408   x 
            x  Ni         107         0.820810   0.062326   0.314815   x 
            x  Ni         108         0.692209   0.064879   0.192636   x 
            x  Ni         109         0.063880   0.314292   0.316010   x 
            x  Ni         110         0.185170   0.442012   0.320248   x 
            x  Ni         111         0.311174   0.440736   0.188733   x 
            x  Ni         112         0.187638   0.313823   0.188054   x 
            x  Ni         113         0.435842   0.437853   0.317525   x 
            x  Ni         114         0.436228   0.313818   0.189409   x 
            x  Ni         115         0.563918   0.306389   0.316015   x 
            x  Ni         116         0.819308   0.312255   0.313821   x 
            x  Ni         117         0.814579   0.436998   0.189651   x 
            x  Ni         118         0.688063   0.306959   0.188081   x 
            x  Ni         119         0.056270   0.563989   0.311597   x 
            x  Ni         120         0.062071   0.687941   0.186110   x 
            x  Ni         121         0.186181   0.687803   0.314519   x 
            x  Ni         122         0.314708   0.688458   0.189637   x 
            x  Ni         123         0.188904   0.565695   0.189562   x 
            x  Ni         124         0.436942   0.686364   0.316613   x 
            x  Ni         125         0.565657   0.558607   0.314073   x 
            x  Ni         126         0.564189   0.687428   0.193281   x 
            x  Ni         127         0.691247   0.686699   0.315806   x 
            x  Ni         128         0.817790   0.561837   0.314136   x 
            x  Ni         129         0.816349   0.686337   0.192208   x 
            x  Ni         130         0.688831   0.558993   0.192598   x 
            x  Ni         131         0.060544   0.937854   0.188643   x 
            x  Ni         132         0.186433   0.934807   0.313980   x 
            x  Ni         133         0.310733   0.810942   0.315054   x 
            x  Ni         134         0.312474   0.936639   0.189050   x 
            x  Ni         135         0.187345   0.811931   0.188889   x 
            x  Ni         136         0.437353   0.937940   0.316585   x 
            x  Ni         137         0.563621   0.813517   0.319996   x 
            x  Ni         138         0.440862   0.815669   0.194063   x 
            x  Ni         139         0.692141   0.940492   0.318962   x 
            x  Ni         140         0.818695   0.812181   0.314177   x 
            x  Ni         141         0.816877   0.937255   0.192598   x 
            x  Ni         142         0.690253   0.814182   0.195367   x 
            x  Ni         143         0.062366   0.060753   0.563330   x 
            x  Ni         144         0.065095   0.186031   0.438432   x 
            x  Ni         145         0.185044   0.189043   0.567704   x 
            x  Ni         146         0.309635   0.061006   0.565335   x 
            x  Ni         147         0.428117   0.189428   0.317849   x 
            x  Ni         148         0.184796   0.934573   0.564892   x 
            x  Ni         149         0.438595   0.189786   0.566549   x 
            x  Ni         150         0.566504   0.063745   0.562468   x 
            x  Ni         151         0.563164   0.068966   0.317304   x 
            x  Ni         152         0.433139   0.063699   0.439897   x 
            x  Ni         153         0.693177   0.307175   0.441810   x 
            x  Ni         154         0.821382   0.061865   0.565735   x 
            x  Ni         155         0.821464   0.187369   0.440565   x 
            x  Ni         156         0.693735   0.065914   0.439627   x 
            x  Ni         157         0.058598   0.310226   0.567043   x 
            x  Ni         158         0.050698   0.437023   0.440568   x 
            x  Ni         159         0.307727   0.449005   0.451154   x 
            x  Ni         160         0.186804   0.315027   0.442645   x 
            x  Ni         161         0.441648   0.562905   0.683717   x 
            x  Ni         162         0.570803   0.308165   0.569231   x 
            x  Ni         163         0.567624   0.433477   0.437092   x 
            x  Ni         164         0.434022   0.314972   0.441747   x 
            x  Ni         165         0.816674   0.186629   0.692923   x 
            x  Ni         166         0.818576   0.436759   0.441357   x 
            x  Ni         167         0.815624   0.313702   0.568965   x 
            x  Ni         168         0.054980   0.563115   0.565780   x 
            x  Ni         169         0.059014   0.695462   0.439178   x 
            x  Ni         170         0.309509   0.677924   0.447265   x 
            x  Ni         171         0.311404   0.319986   0.569629   x 
            x  Ni         172         0.443003   0.685864   0.558955   x 
            x  Ni         173         0.568816   0.563801   0.561434   x 
            x  Ni         174         0.439814   0.561974   0.438983   x 
            x  Ni         175         0.817790   0.563309   0.564969   x 
            x  Ni         176         0.817538   0.688035   0.439246   x 
            x  Ni         177         0.693913   0.563419   0.438757   x 
            x  Ni         178         0.062093   0.934808   0.436500   x 
            x  Ni         179         0.311813   0.938026   0.440423   x 
            x  Ni         180         0.439617   0.936353   0.559243   x 
            x  Ni         181         0.693398   0.812482   0.439236   x 
            x  Ni         182         0.818999   0.811974   0.564940   x 
            x  Ni         183         0.819431   0.937418   0.438447   x 
            xxxxxxxxxxxxxxxxxxxxxxxxxxxxxxxxxxxxxxxxxxxxxxxxxxxxxxxxxxxx
 
 
                         No user defined ionic velocities
 
                           -------------------------------
                                   Details of Species
                           -------------------------------
 
                               Mass of species in AMU
                                    Al   26.9815400
                                    Ni   58.6934000
 
                          Electric Quadrupole Moment (Barn)
                                    Al    0.1466000 Isotope 27
                                    Ni    0.1620000 Isotope 61
 
                          Files used for pseudopotentials:
                                    Al 3|2.2|2.2|1.4|4|5|5|30:31:32U2U2
                                    Ni 3|2.4|2.4|1.0|8|9|10|40:41:32U2U2(qc=5.5)
 
                           -------------------------------
                              k-Points For BZ Sampling
                           -------------------------------
                       MP grid size for SCF calculation is  1  1  1
                            with an offset of   0.000  0.000  0.000
                       Number of kpoints used =             1
 
                           -------------------------------
                               Symmetry and Constraints
                           -------------------------------
 
                      Maximum deviation from symmetry =  0.00000         ANG
 
                      Number of symmetry operations   =           1
                      Number of ionic constraints     =           3
                      Point group of crystal =     1: C1, 1, 1
                      Space group of crystal =     1: P1, P 1
 
             Set iprint > 1 for details on symmetry rotations/translations
 
                         Centre of mass is constrained
             Set iprint > 1 for details of linear ionic constraints
 
                         Number of cell constraints= 6
                         Cell constraints are:  0 0 0 0 0 0
 
                         External pressure/stress (GPa)
                          0.00000   0.00000   0.00000
                                    0.00000   0.00000
                                              0.00000
 
+---------------- MEMORY AND SCRATCH DISK ESTIMATES PER PROCESS --------------+
|                                                     Memory          Disk    |
| Baseline code, static data and system overhead      855.0 MB         0.0 MB |
| BLAS internal memory storage                          0.0 MB         0.0 MB |
| Model and support data                              335.0 MB         0.0 MB |
| Electronic energy minimisation requirements          66.7 MB         0.0 MB |
| Force calculation requirements                        1.7 MB         0.0 MB |
|                                               ----------------------------- |
| Approx. total storage required per process         1256.7 MB         0.0 MB |
|                                                                             |
| Requirements will fluctuate during execution and may exceed these estimates |
+-----------------------------------------------------------------------------+
Calculating approximate eigenstates for fixed initial Hamiltonian
Cut-off for approx. calculation is  550.359 eV
Resetting cut-off to  900.000 eV
Calculating total energy with cut-off of  900.000 eV.
------------------------------------------------------------------------ <-- SCF
SCF loop      Energy           Fermi           Energy gain       Timer   <-- SCF
                               energy          per atom          (sec)   <-- SCF
------------------------------------------------------------------------ <-- SCF
Initial  -2.60450146E+005  0.00000000E+000                      1411.50  <-- SCF
      1  -2.59955531E+005  3.33743732E+000  -1.93966630E+000    1442.10  <-- SCF
      2  -2.60102992E+005  3.42432621E+000   5.78278604E-001    1475.25  <-- SCF
      3  -2.61312569E+005  9.08312481E+000   4.74344195E+000    1513.92  <-- SCF
      4  -2.61373007E+005  9.05945214E+000   2.37011801E-001    1555.42  <-- SCF
      5  -2.60176831E+005  6.63441805E+000  -4.69088657E+000    1601.05  <-- SCF
      6  -2.60377054E+005  6.63522217E+000   7.85186571E-001    1645.28  <-- SCF
      7  -2.60057950E+005  5.01283592E+000  -1.25138820E+000    1685.76  <-- SCF
      8  -2.60005916E+005  4.61682436E+000  -2.04054304E-001    1735.15  <-- SCF
      9  -2.59999473E+005  4.58719412E+000  -2.52667813E-002    1769.02  <-- SCF
     10  -2.60001866E+005  4.66263237E+000   9.38483662E-003    1805.39  <-- SCF
     11  -2.59995431E+005  4.63551490E+000  -2.52341590E-002    1842.48  <-- SCF
     12  -2.59995434E+005  4.63557984E+000   8.86959001E-006    1877.28  <-- SCF
     13  -2.59997331E+005  4.61005010E+000   7.44098746E-003    1916.26  <-- SCF
     14  -2.59994377E+005  4.58172391E+000  -1.15857227E-002    1955.98  <-- SCF
     15  -2.59994244E+005  4.58355037E+000  -5.22410413E-004    1990.77  <-- SCF
     16  -2.59994360E+005  4.59355314E+000   4.56756011E-004    2026.43  <-- SCF
     17  -2.59993852E+005  4.58719113E+000  -1.99064519E-003    2059.32  <-- SCF
     18  -2.59993830E+005  4.58666598E+000  -8.69906331E-005    2095.14  <-- SCF
     19  -2.59993857E+005  4.58648499E+000   1.06333839E-004    2136.49  <-- SCF
     20  -2.59993823E+005  4.58570742E+000  -1.35827110E-004    2177.08  <-- SCF
     21  -2.59993822E+005  4.58610172E+000  -3.77160860E-006    2210.67  <-- SCF
     22  -2.59993824E+005  4.58693350E+000   7.78346682E-006    2241.52  <-- SCF
     23  -2.59993820E+005  4.58743046E+000  -1.53038963E-005    2274.12  <-- SCF
     24  -2.59993820E+005  4.58741543E+000  -4.08859095E-007    2303.65  <-- SCF
     25  -2.59993820E+005  4.58706359E+000   2.52559677E-007    2325.42  <-- SCF
------------------------------------------------------------------------ <-- SCF
 
Final energy, E             =  -259989.6391232     eV
Final free energy (E-TS)    =  -259993.8197949     eV
(energies not corrected for finite basis set)
 
NB est. 0K energy (E-0.5TS)      =  -259991.7294590     eV
 

Writing analysis data to castep.castep_bin

Writing model to castep.check
 
+---------------- MEMORY AND SCRATCH DISK ESTIMATES PER PROCESS --------------+
|                                                     Memory          Disk    |
| Model and support data                              345.7 MB         0.0 MB |
| Electronic energy minimisation requirements          66.7 MB         0.0 MB |
| Geometry minimisation requirements                   80.9 MB         0.0 MB |
|                                               ----------------------------- |
| Approx. total storage required per process          493.3 MB         0.0 MB |
|                                                                             |
| Requirements will fluctuate during execution and may exceed these estimates |
+-----------------------------------------------------------------------------+
 
 
 ************************************** Forces **************************************
 *                                                                                  *
 *                           Cartesian components (eV/A)                            *
 * -------------------------------------------------------------------------------- *
 *                         x                    y                    z              *
 *                                                                                  *
 * Al              1     -0.43663              0.11941             -0.09568         *
 * Al              2     -0.24786             -0.12389              0.09464         *
 * Al              3     -2.42532             -2.03921              0.25941         *
 * Al              4     -2.84152              1.26022              1.08249         *
 * Al              5     -1.13839              0.01422             -0.89475         *
 * Al              6     -1.52206              0.03456             -1.34111         *
 * Al              7     -0.33706             -0.12397              0.07301         *
 * Al              8     -0.43270              0.08884              0.03529         *
 * Al              9     -2.16453             -0.64141              1.04800         *
 * Al             10     -2.45076              0.27751              1.05619         *
 * Al             11     -1.41905              0.63145             -0.32249         *
 * Al             12     -2.28856              0.01912             -1.71327         *
 * Al             13     -0.50205              0.02104             -0.03646         *
 * Al             14     -0.65465             -0.46765             -0.06992         *
 * Al             15     -0.92821              0.27241             -0.11790         *
 * Al             16     -2.87357              0.27969             -0.79438         *
 * Al             17      0.19167              0.01985              0.11282         *
 * Al             18     -0.09048              0.12540              0.06758         *
 * Al             19      0.02892             -0.06708             -0.10417         *
 * Al             20     -0.15012              0.01497             -0.14838         *
 * Al             21      0.36103              0.12992              0.05880         *
 * Al             22      0.28176             -0.05904             -0.00164         *
 * Al             23      0.02797              0.07299             -0.11283         *
 * Al             24      2.85117             -0.04774              0.29909         *
 * Al             25      0.18385              0.04114              0.20599         *
 * Al             26     -0.00581             -0.22787             -0.08724         *
 * Al             27      0.03986              0.00987              0.19290         *
 * Al             28     -0.01279             -0.16691             -0.09435         *
 * Al             29      0.28014             -0.25341             -0.05176         *
 * Al             30     -0.10899              0.00935             -0.02883         *
 * Al             31     -0.10119              0.07062              0.04991         *
 * Al             32      0.14486             -0.16014             -0.05906         *
 * Al             33      2.43519              0.11491              1.08180         *
 * Al             34     -0.10299             -0.06694              0.01053         *
 * Al             35     -0.05228              0.07899              0.15585         *
 * Al             36      0.14255              0.17438             -0.04244         *
 * Al             37      0.01422             -0.01984              0.01850         *
 * Al             38      0.02238              0.01373              0.06007         *
 * Al             39      0.95336              0.08708              0.55183         *
 * Al             40      0.07193             -0.09813             -0.10377         *
 * Al             41      0.11472              0.15038              0.05999         *
 * Al             42     -0.38290              0.29428              0.13258         *
 * Al             43     -0.22619             -0.10827              0.06942         *
 * Al             44      0.15002             -0.08090             -0.01088         *
 * Al             45      1.75883              0.01663              0.21293         *
 * Al             46     -0.25701             -0.07104             -0.02376         *
 * Al             47     -0.07877              0.13298              0.14640         *
 * Al             48     -0.30006              0.05231             -0.02713         *
 * Al             49     -0.03129              0.03575             -0.05300         *
 * Al             50      0.03603             -0.08657              0.11242         *
 * Al             51     -0.16382             -0.01315              0.04443         *
 * Al             52     -0.01874              0.13472             -0.07726         *
 * Al             53      0.16499             -0.07671             -0.18188         *
 * Al             54      0.13583             -0.01854              0.16615         *
 * Al             55      0.09940              0.37898             -0.22868         *
 * Al             56     -0.05638             -0.15717              0.08038         *
 * Al             57      0.13705              0.15787              0.11307         *
 * Al             58      2.08724             -0.00080              0.13300         *
 * Al             59      0.51991             -0.27689              0.04032         *
 * Al             60     -0.14636             -0.22731             -0.24629         *
 * Al             61      0.06067              0.22565              0.02072         *
 * Al             62      1.58056             -0.38581             -0.35660         *
 * Al             63     -0.02699              0.06344              0.08825         *
 * Al             64     -0.09413             -0.17879             -0.15965         *
 * Al             65     -0.12637             -0.00451             -0.17891         *
 * Al             66      0.04253             -0.04582             -0.20871         *
 * Al             67      0.05673             -0.04417              0.05385         *
 * Al             68      3.08271              0.54820             -0.19376         *
 * Al             69     -0.11977              0.00298              0.20050         *
 * Al             70     -0.12553              0.14856              0.08800         *
 * Al             71     -0.07079              0.11864              0.16777         *
 * Al             72      0.09593             -0.31793             -0.16190         *
 * Ni              1     -0.17925              0.09927              0.00646         *
 * Ni              2     -0.33451             -0.12609              0.28087         *
 * Ni              3     -0.71578             -0.22218              0.24626         *
 * Ni              4     -0.34826              0.13570              0.16453         *
 * Ni              5      0.14260              0.04863             -0.05186         *
 * Ni              6      0.22433             -0.31774              0.17714         *
 * Ni              7     -0.21383              0.03789             -0.16193         *
 * Ni              8     -0.42829              0.19218             -0.08708         *
 * Ni              9     -0.12806             -0.04726             -0.08884         *
 * Ni             10     -0.39621             -0.07263             -0.79459         *
 * Ni             11     -0.59678              0.48949             -0.41248         *
 * Ni             12     -0.38327             -0.32709             -0.24305         *
 * Ni             13     -0.16013             -0.23760             -0.06735         *
 * Ni             14     -0.54520             -0.13350              0.51018         *
 * Ni             15     -0.59570              0.63694              0.31838         *
 * Ni             16     -0.71729              0.08874             -0.32767         *
 * Ni             17      0.44788              0.05233             -0.04478         *
 * Ni             18      0.38382              0.15703              0.10448         *
 * Ni             19     -0.14895             -0.02526             -0.07589         *
 * Ni             20      0.00614              0.01593              0.20947         *
 * Ni             21     -0.26380              0.02871              0.03598         *
 * Ni             22      0.03780              0.12170             -0.08492         *
 * Ni             23     -0.05315             -0.10947              0.10998         *
 * Ni             24      0.09073             -0.10934              0.12718         *
 * Ni             25     -0.02618              0.23088             -0.05728         *
 * Ni             26      0.24372             -0.13675              0.11646         *
 * Ni             27     -0.32751              0.16439             -0.08320         *
 * Ni             28      0.03894             -0.01209              0.21252         *
 * Ni             29      0.03110             -0.07178              0.07897         *
 * Ni             30      0.28950              0.14866             -0.28410         *
 * Ni             31      0.34458             -0.16438             -0.02382         *
 * Ni             32      0.01839             -0.02707              0.15847         *
 * Ni             33     -0.05007              0.07004             -0.16655         *
 * Ni             34      0.08545             -0.00559             -0.13939         *
 * Ni             35      0.03845             -0.34290              0.06629         *
 * Ni             36     -0.20843              0.05491              0.07077         *
 * Ni             37     -0.03372             -0.06895             -0.11908         *
 * Ni             38     -0.07880             -0.00624              0.02289         *
 * Ni             39      0.10132             -0.06847              0.11681         *
 * Ni             40      0.76152             -0.07477             -0.40653         *
 * Ni             41     -0.10237              0.01179             -0.18557         *
 * Ni             42      0.07364             -0.11929              0.24442         *
 * Ni             43      0.01089             -0.10667              0.01476         *
 * Ni             44     -0.20068              0.05269             -0.08274         *
 * Ni             45      0.03183             -0.15318             -0.12058         *
 * Ni             46      0.22976              0.19193              0.04341         *
 * Ni             47     -0.01960              0.13355             -0.06484         *
 * Ni             48      0.01605              0.00505              0.14267         *
 * Ni             49      0.78633             -0.14016             -0.13876         *
 * Ni             50      0.51051              0.03437             -0.09733         *
 * Ni             51      0.14748             -0.13128              0.09638         *
 * Ni             52      0.15949              0.13813              0.19777         *
 * Ni             53     -0.03522              0.02392             -0.25796         *
 * Ni             54      0.04719             -0.14047              0.14912         *
 * Ni             55      0.20108              0.24546             -0.02721         *
 * Ni             56      0.04280              0.06388              0.16154         *
 * Ni             57      0.23141             -0.13073             -0.05784         *
 * Ni             58      0.15905              0.05632              0.08912         *
 * Ni             59     -0.03640              0.04408             -0.25928         *
 * Ni             60     -0.05774             -0.06605              0.18416         *
 * Ni             61     -0.13832              0.01372              0.07412         *
 * Ni             62      0.13712              0.02069             -0.19419         *
 * Ni             63      0.15715              0.07798              0.23388         *
 * Ni             64      0.11025             -0.01465              0.09184         *
 * Ni             65      0.06162              0.07939              0.12740         *
 * Ni             66     -0.07425              0.15726              0.00243         *
 * Ni             67      0.15057              0.10797             -0.15842         *
 * Ni             68     -0.01582              0.04503             -0.12592         *
 * Ni             69     -0.15560             -0.12984              0.02411         *
 * Ni             70     -0.03303             -0.07343             -0.16198         *
 * Ni             71     -0.19351             -0.12637              0.03762         *
 * Ni             72      0.26838             -0.26688              0.12307         *
 * Ni             73     -0.01176             -0.05809              0.11479         *
 * Ni             74      0.00321             -0.09016              0.02001         *
 * Ni             75      0.14725             -0.00541              0.24920         *
 * Ni             76      0.01943              0.04580              0.03453         *
 * Ni             77      0.03783             -0.07653              0.00087         *
 * Ni             78     -0.19971              0.16088             -0.12991         *
 * Ni             79      0.05515             -0.12490             -0.01407         *
 * Ni             80      0.22621             -0.05936              0.50252         *
 * Ni             81     -0.10288              0.07143              0.22297         *
 * Ni             82      0.70911              0.00188              0.07135         *
 * Ni             83      0.37027              0.16328              0.34420         *
 * Ni             84     -0.22595             -0.19333              0.28226         *
 * Ni             85     -0.30326              0.16017              0.08769         *
 * Ni             86     -0.04272             -0.01810             -0.02618         *
 * Ni             87     -0.00161             -0.04626             -0.04888         *
 * Ni             88     -0.09319             -0.00091             -0.05668         *
 * Ni             89      0.11316              0.13070              0.03356         *
 * Ni             90     -0.20970             -0.01272             -0.04293         *
 * Ni             91      0.29603             -0.06744              0.01529         *
 * Ni             92      0.74512             -0.23701             -0.17110         *
 * Ni             93      0.34614              0.16906              0.13110         *
 * Ni             94     -0.01501              0.10066              0.20536         *
 * Ni             95     -0.21622             -0.03500              0.11684         *
 * Ni             96      0.03155              0.03698              0.11689         *
 * Ni             97     -0.11639              0.03721              0.19297         *
 * Ni             98      0.25514              0.05954             -0.08224         *
 * Ni             99      0.32219              0.13898             -0.21001         *
 * Ni            100     -0.07154             -0.03328              0.06477         *
 * Ni            101      0.38756              0.08005             -0.08873         *
 * Ni            102     -0.10359             -0.03162              0.06537         *
 * Ni            103     -0.07319              0.06598              0.00986         *
 * Ni            104     -0.13511             -0.04337             -0.28833         *
 * Ni            105      0.04429             -0.04062             -0.14857         *
 * Ni            106      0.05076              0.12432             -0.13311         *
 * Ni            107     -0.34336             -0.06297              0.13751         *
 * Ni            108     -0.00601              0.01698              0.07574         *
 * Ni            109      0.31692              0.08113             -0.15122         *
 * Ni            110     -0.07097             -0.10469              0.04947         *
 * Ni            111     -0.00146              0.06499             -0.10929         *
 * Ni            112     -0.01596             -0.04908             -0.21800         *
 * Ni            113      0.11798              0.14713              0.00420         *
 * Ni            114      0.15074             -0.07270             -0.14333         *
 * Ni            115     -0.09193              0.07337              0.15211         *
 * Ni            116     -0.08761             -0.06302              0.15851         *
 * Ni            117     -0.02053              0.01459             -0.18237         *
 * Ni            118     -0.11520              0.03482             -0.22719         *
 * Ni            119      1.09692              0.01340              0.28850         *
 * Ni            120      0.65789              0.05206              0.23574         *
 * Ni            121     -0.05373             -0.00257             -0.06221         *
 * Ni            122     -0.13723              0.12558              0.22235         *
 * Ni            123      0.15549              0.07090             -0.25975         *
 * Ni            124     -0.08111              0.17417             -0.09129         *
 * Ni            125      0.06343             -0.08255              0.02729         *
 * Ni            126     -0.08202             -0.11647             -0.29377         *
 * Ni            127      0.26984              0.04900             -0.29870         *
 * Ni            128     -0.22125              0.08823              0.20930         *
 * Ni            129     -0.14463             -0.05720              0.08393         *
 * Ni            130     -0.23059              0.13931              0.22605         *
 * Ni            131      0.90196              0.02369              0.00793         *
 * Ni            132     -0.08534             -0.00957             -0.02843         *
 * Ni            133      0.11978              0.05098             -0.39765         *
 * Ni            134     -0.32284             -0.29315              0.07518         *
 * Ni            135      0.17967              0.12695             -0.24582         *
 * Ni            136     -0.12746             -0.03436              0.00703         *
 * Ni            137      0.03892             -0.15279              0.05227         *
 * Ni            138     -0.10649              0.03253              0.18496         *
 * Ni            139      0.29645             -0.13022             -0.16298         *
 * Ni            140     -0.30843              0.05148              0.17535         *
 * Ni            141     -0.09633              0.00275             -0.03748         *
 * Ni            142     -0.13283             -0.13961              0.10784         *
 * Ni            143      0.47077              0.10863              0.24560         *
 * Ni            144      0.31467              0.18224              0.13896         *
 * Ni            145     -0.11446             -0.07771             -0.02875         *
 * Ni            146      0.21596             -0.10326             -0.01645         *
 * Ni            147     -0.09821             -0.04577             -0.02879         *
 * Ni            148     -0.02242              0.18238             -0.21823         *
 * Ni            149     -0.16203             -0.10037              0.05925         *
 * Ni            150     -0.11407             -0.03858              0.02779         *
 * Ni            151     -0.04073              0.01854              0.03006         *
 * Ni            152      0.11346              0.03926              0.18769         *
 * Ni            153     -0.03673             -0.09457             -0.09412         *
 * Ni            154     -0.19141              0.12000             -0.04439         *
 * Ni            155     -0.00023              0.06639              0.10656         *
 * Ni            156      0.05769             -0.08613             -0.09709         *
 * Ni            157      0.50471             -0.03687             -0.01469         *
 * Ni            158      1.62218              0.07636             -0.27644         *
 * Ni            159     -0.20987             -0.09030             -0.02935         *
 * Ni            160      0.00909             -0.11337             -0.13923         *
 * Ni            161      0.09289              0.01960              0.02435         *
 * Ni            162      0.24265             -0.23995             -0.03683         *
 * Ni            163     -0.14790              0.20643             -0.04535         *
 * Ni            164      0.14207              0.00624             -0.12053         *
 * Ni            165     -0.00393              0.01084              0.08138         *
 * Ni            166      0.09715             -0.01089              0.11580         *
 * Ni            167     -0.22664             -0.07151             -0.19442         *
 * Ni            168      1.24211             -0.08830             -0.08897         *
 * Ni            169      0.64584              0.00301              0.05247         *
 * Ni            170      0.02684             -0.14962             -0.09478         *
 * Ni            171      0.03831              0.14836              0.20122         *
 * Ni            172      0.04168              0.03292              0.10616         *
 * Ni            173     -0.23626              0.12752              0.07861         *
 * Ni            174      0.23220             -0.21830              0.07114         *
 * Ni            175     -0.00699             -0.12440             -0.13425         *
 * Ni            176     -0.05944             -0.09755             -0.24303         *
 * Ni            177      0.08202              0.13660             -0.07275         *
 * Ni            178      0.70539             -0.25124              0.27114         *
 * Ni            179     -0.26506              0.12372              0.13907         *
 * Ni            180     -0.25379              0.15530             -0.09202         *
 * Ni            181      0.08610             -0.00867             -0.14871         *
 * Ni            182     -0.03736              0.03457             -0.13704         *
 * Ni            183      0.05800              0.05655             -0.18943         *
 *                                                                                  *
 ************************************************************************************
 LBFGS: finished iteration     0 with enthalpy= -2.59993820E+005 eV
  
 +-----------+-----------------+-----------------+------------+-----+ <-- LBFGS
 | Parameter |      value      |    tolerance    |    units   | OK? | <-- LBFGS
 +-----------+-----------------+-----------------+------------+-----+ <-- LBFGS
 |  dE/ion   |   0.000000E+000 |   2.000000E-005 |         eV | No  | <-- LBFGS
 |  |F|max   |   3.291530E+000 |   5.000000E-002 |       eV/A | No  | <-- LBFGS
 |  |dR|max  |   0.000000E+000 |   1.000000E-003 |          A | No  | <-- LBFGS
 +-----------+-----------------+-----------------+------------+-----+ <-- LBFGS
  

================================================================================
 Starting LBFGS iteration          1 ...
================================================================================
  
 +------------+-------------+-------------+-----------------+ <-- min LBFGS
 |    Step    |   lambda    |   F.delta'  |    enthalpy     | <-- min LBFGS
 +------------+-------------+-------------+-----------------+ <-- min LBFGS
 |  previous  |    0.000000 |    6.033331 |  -259993.819795 | <-- min LBFGS
 +------------+-------------+-------------+-----------------+ <-- min LBFGS
  

--------------------------------------------------------------------------------
 LBFGS: starting iteration         1 with trial guess (lambda=  1.000000)
--------------------------------------------------------------------------------
 
                           -------------------------------
                                     Cell Contents
                           -------------------------------
 
            xxxxxxxxxxxxxxxxxxxxxxxxxxxxxxxxxxxxxxxxxxxxxxxxxxxxxxxxxxxxxxxxx
            x  Element         Atom        Fractional coordinates of atoms  x
            x                 Number           u          v          w      x
            x---------------------------------------------------------------x
            x  Al                1         0.943595   0.062188   0.691788   x
            x  Al                2         0.942576   0.313775   0.691683   x
            x  Al                3         0.947069   0.563136   0.685909   x
            x  Al                4         0.943758   0.811823   0.690899   x
            x  Al                5         0.942134   0.060258   0.940146   x
            x  Al                6         0.941740   0.314574   0.940069   x
            x  Al                7         0.949256   0.564938   0.941818   x
            x  Al                8         0.945828   0.810688   0.937327   x
            x  Al                9         0.944244   0.061409   0.189587   x
            x  Al               10         0.942690   0.313485   0.188202   x
            x  Al               11         0.946352   0.562674   0.194015   x
            x  Al               12         0.948683   0.811801   0.196063   x
            x  Al               13         0.945428   0.062656   0.440534   x
            x  Al               14         0.943641   0.312500   0.441471   x
            x  Al               15         0.943903   0.562286   0.440228   x
            x  Al               16         0.944382   0.812614   0.439356   x
            x  Al               17         0.701289   0.938869   0.561475   x
            x  Al               18         0.428003   0.809985   0.438245   x
            x  Al               19         0.563685   0.944531   0.435451   x
            x  Al               20         0.176130   0.929682   0.808631   x
            x  Al               21         0.194719   0.809954   0.440216   x
            x  Al               22         0.172301   0.569160   0.440959   x
            x  Al               23         0.315426   0.933431   0.682921   x
            x  Al               24         0.053497   0.819148   0.563175   x
            x  Al               25         0.695583   0.688163   0.566690   x
            x  Al               26         0.566543   0.684190   0.433246   x
            x  Al               27         0.312733   0.450952   0.687336   x
            x  Al               28         0.173920   0.434240   0.566301   x
            x  Al               29         0.699553   0.183647   0.563653   x
            x  Al               30         0.448736   0.437425   0.559486   x
            x  Al               31         0.311112   0.189668   0.452200   x
            x  Al               32         0.569381   0.941485   0.200241   x
            x  Al               33         0.062272   0.810515   0.308580   x
            x  Al               34         0.437818   0.564002   0.193725   x
            x  Al               35         0.309064   0.562520   0.318000   x
            x  Al               36         0.697485   0.432734   0.322087   x
            x  Al               37         0.564792   0.430556   0.197672   x
            x  Al               38         0.309370   0.321488   0.313867   x
            x  Al               39         0.072542   0.440576   0.189065   x
            x  Al               40         0.700336   0.187907   0.316048   x
            x  Al               41         0.690719   0.439940   0.559611   x
            x  Al               42         0.556638   0.314685   0.057749   x
            x  Al               43         0.553436   0.183295   0.193867   x
            x  Al               44         0.309580   0.058569   0.311936   x
            x  Al               45         0.066123   0.188736   0.201927   x
            x  Al               46         0.690811   0.814376   0.939305   x
            x  Al               47         0.812225   0.811699   0.073138   x
            x  Al               48         0.560175   0.808279   0.811050   x
            x  Al               49         0.440331   0.935823   0.067051   x
            x  Al               50         0.314171   0.928712   0.934009   x
            x  Al               51         0.804934   0.563712   0.066064   x
            x  Al               52         0.443302   0.700563   0.068303   x
            x  Al               53         0.573168   0.563673   0.059668   x
            x  Al               54         0.314481   0.691001   0.938644   x
            x  Al               55         0.697293   0.317163   0.930437   x
            x  Al               56         0.189762   0.308620   0.936753   x
            x  Al               57         0.320172   0.448533   0.941782   x
            x  Al               58         0.058623   0.311393   0.060582   x
            x  Al               59         0.697379   0.179678   0.065698   x
            x  Al               60         0.556114   0.176140   0.931405   x
            x  Al               61         0.189943   0.069366   0.936288   x
            x  Al               62         0.062603   0.062759   0.066698   x
            x  Al               63         0.560137   0.941006   0.683123   x
            x  Al               64         0.808141   0.566906   0.815526   x
            x  Al               65         0.565034   0.566303   0.813775   x
            x  Al               66         0.316181   0.681637   0.677125   x
            x  Al               67         0.181662   0.688485   0.815674   x
            x  Al               68         0.052035   0.683510   0.690212   x
            x  Al               69         0.557525   0.181379   0.692685   x
            x  Al               70         0.554703   0.187945   0.440681   x
            x  Al               71         0.695837   0.314965   0.700236   x
            x  Al               72         0.319488   0.307885   0.807412   x
            x  Ni                1         0.940951   0.186461   0.816430   x
            x  Ni                2         0.940760   0.443671   0.814680   x
            x  Ni                3         0.940934   0.684726   0.814108   x
            x  Ni                4         0.941534   0.936290   0.815170   x
            x  Ni                5         0.818893   0.187038   0.188737   x
            x  Ni                6         0.939106   0.441255   0.066558   x
            x  Ni                7         0.939556   0.687464   0.067928   x
            x  Ni                8         0.940739   0.933353   0.066269   x
            x  Ni                9         0.941327   0.188054   0.314176   x
            x  Ni               10         0.940560   0.436777   0.315456   x
            x  Ni               11         0.942539   0.686710   0.317240   x
            x  Ni               12         0.943249   0.937991   0.315968   x
            x  Ni               13         0.940427   0.188456   0.567124   x
            x  Ni               14         0.941208   0.437315   0.564995   x
            x  Ni               15         0.941621   0.688244   0.563726   x
            x  Ni               16         0.941143   0.936680   0.565446   x
            x  Ni               17         0.062473   0.062568   0.815364   x
            x  Ni               18         0.062424   0.185838   0.690924   x
            x  Ni               19         0.189743   0.187253   0.810950   x
            x  Ni               20         0.309188   0.055537   0.811530   x
            x  Ni               21         0.313723   0.185583   0.685966   x
            x  Ni               22         0.186178   0.059204   0.689555   x
            x  Ni               23         0.435747   0.182714   0.811301   x
            x  Ni               24         0.562748   0.056936   0.811667   x
            x  Ni               25         0.435413   0.058958   0.686426   x
            x  Ni               26         0.688525   0.185221   0.814731   x
            x  Ni               27         0.816660   0.059386   0.816007   x
            x  Ni               28         0.689143   0.441097   0.813406   x
            x  Ni               29         0.692082   0.061210   0.689111   x
            x  Ni               30         0.063329   0.311735   0.817122   x
            x  Ni               31         0.061788   0.438100   0.695353   x
            x  Ni               32         0.193004   0.437978   0.816667   x
            x  Ni               33         0.439893   0.316071   0.688683   x
            x  Ni               34         0.187756   0.314409   0.692520   x
            x  Ni               35         0.437594   0.442296   0.812213   x
            x  Ni               36         0.689479   0.564634   0.937853   x
            x  Ni               37         0.820763   0.315384   0.815867   x
            x  Ni               38         0.817119   0.441048   0.689935   x
            x  Ni               39         0.566587   0.437901   0.688849   x
            x  Ni               40         0.061592   0.562683   0.817263   x
            x  Ni               41         0.313757   0.569834   0.813152   x
            x  Ni               42         0.184469   0.565114   0.687999   x
            x  Ni               43         0.438923   0.688075   0.810654   x
            x  Ni               44         0.690955   0.563099   0.688191   x
            x  Ni               45         0.565247   0.689201   0.684955   x
            x  Ni               46         0.688312   0.691101   0.812143   x
            x  Ni               47         0.817729   0.443145   0.940189   x
            x  Ni               48         0.817758   0.687759   0.689650   x
            x  Ni               49         0.056968   0.810056   0.813583   x
            x  Ni               50         0.057992   0.937263   0.688242   x
            x  Ni               51         0.182456   0.807871   0.686352   x
            x  Ni               52         0.310938   0.807332   0.806577   x
            x  Ni               53         0.179546   0.688045   0.566267   x
            x  Ni               54         0.311415   0.809784   0.564087   x
            x  Ni               55         0.437376   0.932741   0.810265   x
            x  Ni               56         0.689768   0.815628   0.686708   x
            x  Ni               57         0.439884   0.811053   0.682867   x
            x  Ni               58         0.687874   0.934192   0.812307   x
            x  Ni               59         0.816151   0.810705   0.815127   x
            x  Ni               60         0.817906   0.936616   0.690911   x
            x  Ni               61         0.566863   0.814184   0.556703   x
            x  Ni               62         0.062554   0.186842   0.939785   x
            x  Ni               63         0.186473   0.188039   0.065154   x
            x  Ni               64         0.311789   0.060206   0.063035   x
            x  Ni               65         0.315109   0.186530   0.937238   x
            x  Ni               66         0.438643   0.185064   0.062668   x
            x  Ni               67         0.564059   0.061054   0.066066   x
            x  Ni               68         0.433969   0.055466   0.938433   x
            x  Ni               69         0.818966   0.058672   0.064898   x
            x  Ni               70         0.815731   0.186156   0.938810   x
            x  Ni               71         0.691380   0.059675   0.938610   x
            x  Ni               72         0.064405   0.437552   0.939346   x
            x  Ni               73         0.189603   0.438085   0.060386   x
            x  Ni               74         0.314298   0.314475   0.062226   x
            x  Ni               75         0.442351   0.442663   0.067333   x
            x  Ni               76         0.435544   0.313290   0.936384   x
            x  Ni               77         0.562033   0.438603   0.936520   x
            x  Ni               78         0.562508   0.311383   0.815585   x
            x  Ni               79         0.686180   0.433267   0.064376   x
            x  Ni               80         0.939675   0.187362   0.063931   x
            x  Ni               81         0.814926   0.313640   0.062308   x
            x  Ni               82         0.063088   0.563454   0.064911   x
            x  Ni               83         0.061902   0.687811   0.940995   x
            x  Ni               84         0.188691   0.690140   0.062773   x
            x  Ni               85         0.317202   0.568366   0.065718   x
            x  Ni               86         0.189418   0.565355   0.940134   x
            x  Ni               87         0.439454   0.813281   0.938788   x
            x  Ni               88         0.442337   0.570006   0.941940   x
            x  Ni               89         0.688246   0.690978   0.067812   x
            x  Ni               90         0.816445   0.689089   0.942264   x
            x  Ni               91         0.564593   0.692147   0.939721   x
            x  Ni               92         0.061494   0.814581   0.065153   x
            x  Ni               93         0.062543   0.939048   0.941112   x
[...]
             Al 3  -- Ni 3                   0.17        2.59911
            Ni 87  -- Ni 95                 -0.06        2.59980
             Al 12 -- Ni 129                 0.14        2.60002
            Ni 16  -- Ni 143                 0.03        2.60010
             Al 71 -- Ni 167                 0.18        2.60034
            Ni 10  -- Ni 109                -0.03        2.60050
            Ni 7   -- Ni 92                  0.06        2.60071
            Ni 15  -- Ni 168                 0.02        2.60075
             Al 25 -- Ni 181                 0.16        2.60076
            Ni 31  -- Ni 168                -0.00        2.60083
            Ni 160 -- Ni 171                 0.01        2.60091
             Al 37 -- Ni 79                  0.15        2.60092
             Al 69 -- Ni 26                  0.18        2.60093
            Ni 13  -- Ni 167                 0.08        2.60095
             Al 52 -- Al 54                  0.26        2.60129
             Al 12 -- Ni 140                 0.17        2.60138
             Al 41 -- Ni 39                  0.16        2.60144
            Ni 75  -- Ni 85                  0.06        2.60146
             Al 63 -- Ni 56                  0.15        2.60233
            Ni 39  -- Ni 173                 0.02        2.60240
             Al 63 -- Ni 61                  0.18        2.60243
            Ni 9   -- Ni 109                -0.02        2.60244
            Ni 24  -- Ni 26                  0.01        2.60299
            Ni 5   -- Ni 116                -0.01        2.60317
            Ni 13  -- Ni 144                 0.03        2.60329
            Ni 27  -- Ni 100                 0.09        2.60412
             Al 41 -- Ni 162                 0.18        2.60413
             Al 32 -- Ni 99                  0.17        2.60419
            Ni 119 -- Ni 123                 0.07        2.60434
             Al 66 -- Ni 43                  0.16        2.60434
            Ni 24  -- Ni 68                  0.03        2.60449
            Ni 1   -- Ni 27                  0.02        2.60458
            Ni 16  -- Ni 60                  0.04        2.60484
             Al 13 -- Ni 178                 0.18        2.60494
            Ni 103 -- Ni 178                 0.14        2.60498
            Ni 62  -- Ni 63                 -0.07        2.60505
            Ni 166 -- Ni 177                 0.08        2.60511
            Ni 66  -- Ni 68                  0.06        2.60525
             Al 28 -- Ni 42                  0.23        2.60532
            Ni 3   -- Ni 83                  0.01        2.60546
             Al 3  -- Ni 15                  0.17        2.60550
             Al 8  -- Ni 90                  0.18        2.60552
            Ni 45  -- Ni 61                  0.11        2.60561
            Ni 2   -- Ni 38                  0.04        2.60568
             Al 41 -- Ni 153                 0.18        2.60582
             Al 18 -- Ni 137                 0.16        2.60595
            Ni 34  -- Ni 157                 0.11        2.60603
            Ni 154 -- Ni 156                 0.05        2.60606
            Ni 16  -- Ni 178                -0.02        2.60633
            Ni 9   -- Ni 116                 0.07        2.60642
             Al 11 -- Ni 82                  0.18        2.60650
             Al 70 -- Ni 153                 0.15        2.60661
            Ni 147 -- Ni 151                 0.07        2.60667
             Al 1  -- Ni 16                  0.18        2.60685
             Al 36 -- Ni 130                 0.16        2.60693
            Ni 11  -- Ni 128                 0.09        2.60704
            Ni 29  -- Ni 154                 0.03        2.60707
            Ni 47  -- Ni 79                  0.03        2.60753
            Ni 63  -- Ni 65                  0.02        2.60759
            Ni 121 -- Ni 169                -0.02        2.60798
             Al 66 -- Ni 51                  0.15        2.60827
            Ni 41  -- Ni 88                  0.04        2.60833
             Al 67 -- Ni 42                  0.14        2.60853
            Ni 40  -- Ni 72                  0.13        2.60854
             Al 3  -- Al 68                  0.25        2.60862
             Al 12 -- Al 33                  0.27        2.60862
             Al 23 -- Ni 51                  0.18        2.60876
            Ni 8   -- Ni 141                -0.01        2.60881
            Ni 15  -- Ni 175                 0.08        2.60927
            Ni 26  -- Ni 78                 -0.11        2.61062
            Ni 163 -- Ni 177                 0.00        2.61090
            Ni 54  -- Ni 148                -0.00        2.61124
             Al 9  -- Ni 101                 0.17        2.61128
            Ni 137 -- Ni 139                 0.01        2.61155
             Al 23 -- Ni 22                  0.14        2.61218
             Al 44 -- Ni 104                 0.14        2.61218
            Ni 4   -- Ni 59                  0.01        2.61232
             Al 35 -- Ni 122                 0.15        2.61235
            Ni 49  -- Ni 96                  0.05        2.61248
            Ni 73  -- Ni 123                 0.06        2.61304
             Al 61 -- Al 62                  0.25        2.61377
             Al 64 -- Ni 2                   0.16        2.61381
            Ni 115 -- Ni 147                 0.09        2.61408
            Ni 32  -- Ni 42                  0.09        2.61418
            Ni 182 -- Ni 183                -0.04        2.61427
             Al 47 -- Ni 7                   0.16        2.61435
             Al 53 -- Ni 126                 0.16        2.61458
             Al 15 -- Ni 169                 0.20        2.61491
             Al 9  -- Ni 80                  0.19        2.61510
            Ni 110 -- Ni 119                 0.03        2.61517
             Al 22 -- Ni 159                 0.18        2.61540
            Ni 149 -- Ni 171                 0.07        2.61542
             Al 15 -- Ni 14                  0.18        2.61567
            Ni 69  -- Ni 70                  0.03        2.61577
            Ni 87  -- Ni 97                 -0.00        2.61586
            Ni 12  -- Ni 107                 0.08        2.61592
             Al 66 -- Ni 57                  0.16        2.61604
            Ni 52  -- Ni 96                 -0.07        2.61617
            Ni 126 -- Ni 137                 0.13        2.61641
            Ni 2   -- Ni 30                  0.05        2.61701
             Al 37 -- Al 42                  0.23        2.61718
             Al 21 -- Ni 169                 0.16        2.61781
            Ni 110 -- Ni 111                -0.00        2.61789
             Al 40 -- Ni 151                 0.15        2.61874
            Ni 72  -- Ni 82                  0.03        2.61891
            Ni 40  -- Ni 83                 -0.02        2.61980
            Ni 7   -- Ni 82                  0.06        2.62032
             Al 40 -- Ni 115                 0.14        2.62052
            Ni 24  -- Ni 25                 -0.01        2.62060
            Ni 43  -- Ni 87                  0.00        2.62125
            Ni 69  -- Ni 80                  0.08        2.62163
             Al 15 -- Ni 10                  0.18        2.62171
            Ni 51  -- Ni 148                 0.06        2.62183
             Al 22 -- Al 35                  0.29        2.62282
            Ni 124 -- Ni 125                 0.05        2.62295
            Ni 6   -- Ni 47                  0.04        2.62301
            Ni 143 -- Ni 178                 0.09        2.62309
             Al 14 -- Ni 167                 0.17        2.62328
            Ni 28  -- Ni 37                  0.02        2.62367
             Al 43 -- Ni 108                 0.14        2.62422
             Al 43 -- Ni 118                 0.13        2.62423
            Ni 28  -- Ni 78                  0.03        2.62491
             Al 11 -- Ni 6                   0.20        2.62500
             Al 30 -- Ni 162                 0.17        2.62539
            Ni 20  -- Ni 65                  0.06        2.62559
            Ni 113 -- Ni 115                 0.10        2.62563
            Ni 121 -- Ni 170                -0.02        2.62575
             Al 48 -- Ni 98                  0.15        2.62586
             Al 60 -- Ni 76                  0.17        2.62597
             Al 61 -- Ni 93                  0.18        2.62600
             Al 36 -- Ni 125                 0.17        2.62614
            Ni 41  -- Ni 161                 0.01        2.62620
             Al 27 -- Ni 33                  0.14        2.62648
             Al 62 -- Ni 62                  0.14        2.62660
             Al 21 -- Ni 178                 0.16        2.62718
            Ni 69  -- Ni 108                 0.07        2.62752
            Ni 23  -- Ni 78                  0.00        2.62764
            Ni 67  -- Ni 68                  0.05        2.62784
            Ni 110 -- Ni 123                -0.01        2.62792
             Al 25 -- Ni 61                  0.16        2.62819
            Ni 31  -- Ni 32                  0.09        2.62898
            Ni 95  -- Ni 138                -0.00        2.62903
             Al 16 -- Ni 178                 0.14        2.62939
             Al 5  -- Ni 8                   0.18        2.62973
            Ni 73  -- Ni 85                  0.11        2.63004
            Ni 31  -- Ni 157                -0.00        2.63046
            Ni 19  -- Ni 65                 -0.07        2.63072
            Ni 19  -- Ni 62                 -0.01        2.63160
             Al 46 -- Al 48                  0.25        2.63166
            Ni 36  -- Ni 89                 -0.02        2.63190
            Ni 157 -- Ni 158                 0.03        2.63201
             Al 36 -- Al 37                  0.25        2.63204
             Al 2  -- Ni 2                   0.18        2.63223
             Al 42 -- Ni 118                 0.17        2.63259
             Al 49 -- Al 50                  0.25        2.63353
             Al 27 -- Ni 34                  0.11        2.63424
            Ni 26  -- Ni 37                 -0.01        2.63484
             Al 26 -- Ni 61                  0.17        2.63511
             Al 4  -- Ni 3                   0.15        2.63544
             Al 6  -- Ni 6                   0.17        2.63561
            Ni 74  -- Ni 75                  0.07        2.63592
            Ni 20  -- Ni 21                  0.09        2.63651
            Ni 99  -- Ni 142                -0.01        2.63692
             Al 10 -- Ni 109                 0.16        2.63740
             Al 72 -- Ni 32                  0.17        2.63832
             Al 15 -- Ni 15                  0.18        2.63838
            Ni 23  -- Ni 76                  0.01        2.63867
             Al 19 -- Ni 181                 0.13        2.63872
            Ni 119 -- Ni 169                 0.08        2.63873
            Ni 54  -- Ni 179                 0.04        2.63878
            Ni 28  -- Ni 47                 -0.02        2.63920
            Ni 21  -- Ni 33                  0.02        2.63941
            Ni 89  -- Ni 130                 0.03        2.63980
             Al 50 -- Ni 64                  0.12        2.64086
            Ni 102 -- Ni 105                 0.02        2.64128
            Ni 79  -- Ni 130                -0.02        2.64145
             Al 18 -- Ni 61                  0.15        2.64173
            Ni 3   -- Ni 59                  0.03        2.64211
             Al 11 -- Ni 117                 0.15        2.64341
            Ni 102 -- Ni 112                 0.01        2.64380
             Al 52 -- Ni 88                  0.16        2.64421
            Ni 133 -- Ni 179                -0.04        2.64486
             Al 39 -- Ni 6                   0.15        2.64493
             Al 14 -- Ni 10                  0.18        2.64509
            Ni 91  -- Ni 97                  0.04        2.64603
            Ni 159 -- Ni 164                 0.10        2.64620
             Al 20 -- Ni 20                  0.16        2.64686
             Al 32 -- Ni 67                  0.16        2.64740
            Ni 37  -- Ni 47                  0.04        2.64843
             Al 24 -- Al 68                  0.22        2.64885
             Al 56 -- Al 72                  0.24        2.64942
             Al 52 -- Ni 85                  0.13        2.64956
             Al 63 -- Ni 58                  0.15        2.64958
             Al 17 -- Ni 61                  0.15        2.64977
            Ni 110 -- Ni 112                 0.03        2.65066
            Ni 15  -- Ni 176                 0.04        2.65117
            Ni 48  -- Ni 56                  0.08        2.65126
            Ni 116 -- Ni 117                 0.01        2.65137
             Al 48 -- Ni 58                  0.12        2.65168
            Ni 106 -- Ni 147                 0.02        2.65245
             Al 56 -- Ni 73                  0.14        2.65249
             Al 17 -- Ni 150                 0.14        2.65439
            Ni 102 -- Ni 109                 0.07        2.65804
            Ni 139 -- Ni 151                -0.00        2.65804
            Ni 35  -- Ni 88                  0.03        2.65838
            Ni 36  -- Ni 79                  0.00        2.65897
            Ni 80  -- Ni 81                  0.07        2.65927
             Al 61 -- Ni 94                  0.13        2.66007
            Ni 145 -- Ni 171                 0.07        2.66345
            Ni 23  -- Ni 33                  0.02        2.66353
             Al 3  -- Ni 40                  0.12        2.66396
            Ni 117 -- Ni 118                 0.11        2.66671
             Al 38 -- Ni 159                 0.12        2.66771
            Ni 153 -- Ni 166                 0.07        2.66799
             Al 20 -- Ni 52                  0.13        2.66973
             Al 48 -- Al 63                  0.23        2.67004
             Al 32 -- Al 49                  0.25        2.67072
             Al 38 -- Ni 104                 0.13        2.67080
            Ni 101 -- Ni 102                 0.05        2.67330
             Al 34 -- Al 37                  0.20        2.67488
             Al 22 -- Al 28                  0.28        2.67960
            Ni 113 -- Ni 159                 0.05        2.68067
             Al 27 -- Al 72                  0.19        2.68118
             Al 70 -- Ni 156                 0.11        2.68146
            Ni 168 -- Ni 169                 0.03        2.68175
             Al 5  -- Ni 80                  0.15        2.68195
            Ni 50  -- Ni 51                  0.02        2.68489
             Al 21 -- Al 33                  0.22        2.68583
            Ni 116 -- Ni 118                 0.09        2.68717
             Al 21 -- Al 24                  0.22        2.68765
             Al 34 -- Al 52                  0.20        2.69012
            Ni 162 -- Ni 163                 0.06        2.69018
             Al 17 -- Al 63                  0.22        2.69378
             Al 51 -- Ni 7                   0.13        2.69458
             Al 3  -- Al 64                  0.22        2.69557
             Al 45 -- Ni 80                  0.13        2.69860
             Al 36 -- Ni 115                 0.13        2.69961
             Al 6  -- Al 58                  0.21        2.70020
             Al 39 -- Al 58                  0.22        2.70158
            Ni 75  -- Ni 76                  0.05        2.70179
             Al 45 -- Al 58                  0.21        2.70678
            Ni 70  -- Ni 80                  0.03        2.71038
             Al 27 -- Al 28                  0.29        2.71078
             Al 17 -- Al 19                  0.22        2.71136
             Al 66 -- Ni 52                  0.13        2.71147
             Al 6  -- Ni 80                  0.14        2.71209
             Al 27 -- Al 30                  0.27        2.71360
             Al 9  -- Al 62                  0.23        2.71431
             Al 11 -- Al 39                  0.21        2.71561
             Al 25 -- Al 26                  0.21        2.71822
             Al 45 -- Al 62                  0.20        2.71881
             Al 20 -- Al 50                  0.22        2.71927
            Ni 49  -- Ni 93                  0.04        2.71980
             Al 7  -- Ni 90                  0.13        2.72121
             Al 20 -- Al 23                  0.21        2.72230
             Al 5  -- Al 62                  0.22        2.72401
             Al 11 -- Al 51                  0.22        2.72859
            Ni 162 -- Ni 164                 0.05        2.73189
             Al 50 -- Al 61                  0.18        2.73515
             Al 16 -- Al 24                  0.18        2.73971
             Al 18 -- Al 19                  0.19        2.74194
             Al 18 -- Al 26                  0.20        2.74251
             Al 36 -- Ni 118                 0.13        2.74584
             Al 41 -- Al 71                  0.19        2.74585
             Al 40 -- Al 43                  0.19        2.74908
             Al 42 -- Al 43                  0.19        2.74998
             Al 4  -- Al 24                  0.18        2.75158
             Al 52 -- Al 53                  0.18        2.75299
             Al 69 -- Al 71                  0.18        2.75362
             Al 29 -- Al 70                  0.19        2.75745
             Al 42 -- Al 60                  0.23        2.75887
             Al 31 -- Al 38                  0.18        2.76039
             Al 34 -- Al 53                  0.17        2.77114
             Al 10 -- Al 58                  0.19        2.77468
             Al 40 -- Al 70                  0.19        2.77583
             Al 37 -- Al 53                  0.15        2.77842
             Al 4  -- Al 68                  0.16        2.77847
             Al 20 -- Al 61                  0.17        2.77981
             Al 16 -- Al 33                  0.16        2.78602
             Al 8  -- Al 47                  0.19        2.78687
             Al 29 -- Al 71                  0.17        2.78879
            Ni 133 -- Ni 170                -0.06        2.78997
             Al 7  -- Al 51                  0.20        2.79693
             Al 42 -- Al 55                  0.18        2.79925
             Al 31 -- Al 44                  0.16        2.80094
             Al 7  -- Al 64                  0.17        2.80393
             Al 51 -- Ni 6                   0.11        2.80495
             Al 56 -- Al 57                  0.15        2.80548
             Al 66 -- Al 67                  0.15        2.81273
             Al 29 -- Al 69                  0.16        2.82310
             Al 10 -- Al 45                  0.14        2.84350
             Al 9  -- Al 45                  0.13        2.84466
             Al 55 -- Al 59                  0.16        2.85386
             Al 43 -- Al 59                  0.14        2.85589
             Al 10 -- Al 39                  0.14        2.86560
             Al 59 -- Al 60                  0.16        2.89113
             Al 57 -- Al 72                  0.12        2.89660
             Al 55 -- Al 60                  0.11        2.93049
             Al 42 -- Al 59                  0.13        2.93720
======================================================================
 

Writing analysis data to castep.castep_bin

Writing model to castep.check
 
 A BibTeX formatted list of references used in this run has been written to 
 castep.bib
 
Initialisation time =     32.28 s
Calculation time    =  12934.56 s
Finalisation time   =      4.28 s
Total time          =  12971.12 s
Peak Memory Use     = 3943260 kB
 
Overall parallel efficiency rating: Satisfactory (67%)
 
Data was distributed by:-
G-vector (128-way); efficiency rating: Satisfactory (68%)
