 +-------------------------------------------------+
 |                                                 |
 |      CCC   AA    SSS  TTTTT  EEEEE  PPPP        |
 |     C     A  A  S       T    E      P   P       |
 |     C     AAAA   SS     T    EEE    PPPP        |
 |     C     A  A     S    T    E      P           |
 |      CCC  A  A  SSS     T    EEEEE  P           |
 |                                                 |
 +-------------------------------------------------+
 |                                                 |
 | Welcome to Academic Release CASTEP version 20.11|          
 | Ab Initio Total Energy Program                  |
 |                                                 |
 | Authors:                                        |
 | M. Segall, M. Probert, C. Pickard, P. Hasnip,   |
 | S. Clark, K. Refson, J. R. Yates, M. Payne      |
 |                                                 |
 | Contributors:                                   |
 | P. Lindan, P. Haynes, J. White, V. Milman,      |
 | N. Govind, M. Gibson, P. Tulip, V. Cocula,      |
 | B. Montanari, D. Quigley, M. Glover,            |
 | L. Bernasconi, A. Perlov, M. Plummer,           |
 | E. McNellis, J. Meyer, J. Gale, D. Jochym       |
 | J. Aarons, B. Walker, R. Gillen, D. Jones       |
 | T. Green, I. J. Bush, C. J. Armstrong,          |
 | E. J. Higgins, E. L. Brown, M. S. McFly,        |
 | J. Wilkins, B-C. Shih, P. J. P. Byrne,          |
 | R. J. Maurer, J. C. Womack, J. Dziedzic,        |
 | J. R. Kermode, A. Bartok-Partay                 |
 |                                                 |
 | Copyright (c) 2000 - 2020                       |
 |                                                 |
 |     Distributed under license from Cambridge    |
 |     Enterprise for academic use only.           |
 |                                                 |
 | Please cite                                     |
 |                                                 |
 |     "First principles methods using CASTEP"     |
 |                                                 |
 |         Zeitschrift fuer Kristallographie       |
 |           220(5-6) pp. 567-570 (2005)           |
 |                                                 |
 | S. J. Clark, M. D. Segall, C. J. Pickard,       |
 | P. J. Hasnip, M. J. Probert, K. Refson,         |
 | M. C. Payne                                     |
 |                                                 |
 |       in all publications arising from          |
 |              your use of CASTEP                 |
 |                                                 |
 +-------------------------------------------------+
 |                                                 |
 |              http://www.castep.org              |
 |                                                 |
 +-------------------------------------------------+
 
 
 
 Compiled for linux_x86_64_ifort on Wed, 22 Sep 2021 16:00:02 +0100
 from code version e772bf432+  HEAD  Sat Apr 3 17:41:32 2021 +0100
 Compiler: Intel Fortran 19.1.3.304; Optimisation: fast
 MATHLIBS: Intel MKL(2020.0.4) (LAPACK version 3.8.0)
 FFT Lib : mkl
 Fundamental constants values: CODATA 2014
 
 Run started: Tue, 11 Oct 2022 15:00:54 +0100
 
 Atomic calculation performed for Al: 1s2 2s2 2p6 3s2 3p1
 
 Converged in 52 iterations to an ae energy of -6606.982 eV
 
   ============================================================                
   | Pseudopotential Report - Date of generation 11-10-2022   |                
   ------------------------------------------------------------                
   | Element: Al Ionic charge:  3.00 Level of theory: RPBE    |                
   | Atomic Solver: Koelling-Harmon                           |                
   |                                                          |                
   |               Reference Electronic Structure             |                
   |         Orbital         Occupation         Energy        |                
   |            3s              2.000           -0.284        |                
   |            3p              1.000           -0.100        |                
   |                                                          |                
   |                 Pseudopotential Definition               |                
   |        Beta     l      e      Rc     scheme   norm       |                
   |          1      0   -0.284   2.192     qc      0         |                
   |          2      0    0.250   2.192     qc      0         |                
   |          3      1   -0.100   2.192     qc      0         |                
   |          4      1    0.250   2.192     qc      0         |                
   |          5      2    0.000   2.000     qc      0         |                
   |          6      2    0.250   2.000     qc      0         |                
   |         loc     3    0.000   2.192     pn      0         |                
   |                                                          |                
   | Augmentation charge Rinner = 1.398                       |                
   | Partial core correction Rc = 1.398                       |                
   ------------------------------------------------------------                
   | "3|2.2|2.2|1.4|4|5|5|30:31:32U2U2"                       |                
   ------------------------------------------------------------                
   |      Author: Chris J. Pickard, Cambridge University      |                
   ============================================================                
 
 Atomic calculation performed for Ni: 1s2 2s2 2p6 3s2 3p6 3d8 4s2
 
 Converged in 109 iterations to an ae energy of -41381.414 eV
 
   ============================================================                
   | Pseudopotential Report - Date of generation 11-10-2022   |                
   ------------------------------------------------------------                
   | Element: Ni Ionic charge: 10.00 Level of theory: RPBE    |                
   | Atomic Solver: Koelling-Harmon                           |                
   |                                                          |                
   |               Reference Electronic Structure             |                
   |         Orbital         Occupation         Energy        |                
   |            3d              8.000           -0.324        |                
   |            4s              2.000           -0.204        |                
   |                                                          |                
   |                 Pseudopotential Definition               |                
   |        Beta     l      e      Rc     scheme   norm       |                
   |          1      0   -0.204   2.401     qc      0         |                
   |          2      0    0.250   2.401     qc      0         |                
   |          3      1    0.000   2.401     qc      0         |                
   |          4      1    0.250   2.401     qc      0         |                
   |          5      2   -0.324   1.999     qc      0         |                
   |          6      2    0.250   1.999     qc      0         |                
   |         loc     3    0.000   2.401     pn      0         |                
   |                                                          |                
   | Augmentation charge Rinner = 1.001                       |                
   | Partial core correction Rc = 1.001                       |                
   ------------------------------------------------------------                
   | "3|2.4|2.4|1.0|8|9|10|40:41:32U2U2(qc=5.5)"              |                
   ------------------------------------------------------------                
   |      Author: Chris J. Pickard, Cambridge University      |                
   ============================================================                
 
 Pseudo atomic calculation performed for Al 3s2 3p1
 
 Converged in 13 iterations to a total energy of -107.6592 eV
 
 Pseudo atomic calculation performed for Ni 3d8 4s2
 
 Converged in 41 iterations to a total energy of -1369.7890 eV
 Calculation parallelised over 48 processes.
 Data is distributed by G-vector(48-way)

 ************************************ Title ************************************
 

 ***************************** General Parameters ******************************
  
 output verbosity                               : normal  (1)
 write checkpoint data to                       : castep.check
 type of calculation                            : geometry optimization
 stress calculation                             : off
 density difference calculation                 : off
 electron localisation func (ELF) calculation   : off
 Hirshfeld analysis                             : off
 molecular orbital projected DOS                : off
 deltaSCF calculation                           : off
 unlimited duration calculation
 timing information                             : on
 memory usage estimate                          : on
 write extra output files                       : on
 write final potential to formatted file        : off
 write final density to formatted file          : off
 write BibTeX reference list                    : on
 write OTFG pseudopotential files               : on
 write electrostatic potential file             : on
 write bands file                               : on
 checkpoint writing                             : both castep_bin and check files
  
 output         length unit                     : A
 output           mass unit                     : amu
 output           time unit                     : ps
 output         charge unit                     : e
 output           spin unit                     : hbar/2
 output         energy unit                     : eV
 output          force unit                     : eV/A
 output       velocity unit                     : A/ps
 output       pressure unit                     : GPa
 output     inv_length unit                     : 1/A
 output      frequency unit                     : cm-1
 output force constant unit                     : eV/A**2
 output         volume unit                     : A**3
 output   IR intensity unit                     : (D/A)**2/amu
 output         dipole unit                     : D
 output         efield unit                     : eV/A/e
 output        entropy unit                     : J/mol/K
 output    efield chi2 unit                     : pm/V
  
 wavefunctions paging                           : none
 random number generator seed                   : randomised (150054199)
 data distribution                              : optimal for this architecture
 optimization strategy                          : maximize speed(+++)

 *********************** Exchange-Correlation Parameters ***********************
  
 using functional                               : revised Perdew Burke Ernzerhof
 relativistic treatment                         : Koelling-Harmon
 DFT+D: Semi-empirical dispersion correction    : off

 ************************* Pseudopotential Parameters **************************
  
 pseudopotential representation                 : reciprocal space
 <beta|phi> representation                      : reciprocal space
 spin-orbit coupling                            : off

 **************************** Basis Set Parameters *****************************
  
 plane wave basis set cut-off                   :   900.0000   eV
 size of standard grid                          :     1.7500
 size of   fine   gmax                          :    26.8966   1/A
 finite basis set correction                    : automatic
 number of sample energies                      :          3
           sample  spacing                      :     5.0000   eV

 **************************** Electronic Parameters ****************************
  
 number of  electrons                           :  2112.    
 net charge of system                           :  0.000    
 treating system as non-spin-polarized
 number of bands                                :       1168

 ********************* Electronic Minimization Parameters **********************
  
 Method: Treating system as metallic with density mixing treatment of electrons,
         and number of  SD  steps               :          1
         and number of  CG  steps               :          4
  
 total energy / atom convergence tol.           : 0.1000E-05   eV
 eigen-energy convergence tolerance             : 0.2192E-06   eV
 max force / atom convergence tol.              : ignored
 convergence tolerance window                   :          3   cycles
 max. number of SCF cycles                      :        360
 number of fixed-spin iterations                :         10
 smearing scheme                                : Gaussian
 smearing width                                 : 0.2000       eV
 Fermi energy convergence tolerance             : 0.2721E-13   eV
 periodic dipole correction                     : NONE

 ************************** Density Mixing Parameters **************************
  
 density-mixing scheme                          : Pulay
 max. length of mixing history                  :         20
 charge density mixing amplitude                : 0.8000    
 cut-off energy for mixing                      :  900.0       eV

 *********************** Population Analysis Parameters ************************
  
 Population analysis with cutoff                :  3.000       A
 Population analysis output                     : summary and pdos components

 ********************** Geometry Optimization Parameters ***********************
  
 optimization method                            : LBFGS
 max. no. of LBFGS updates                      : unbounded
 preconditioned LBFGS is activated
 preconditioner type                            : EXP
     stabilization constant                     :     0.1000
     parameter A                                :     3.0000
     nearest neighbor distance                  : automatic
     cut-off distance                           : automatic
     parameter mu                               : automatic
 variable cell method                           : fixed basis quality
 max. number of steps                           :         30
 estimated bulk modulus                         :  500.0       GPa
 estimated <frequency>                          :  1668.       cm-1
 geom line minimiser                            : on
 with line minimiser tolerance                  :     0.4000
 total energy convergence tolerance             : 0.2000E-04   eV/atom
        max ionic |force| tolerance             : 0.5000E-01   eV/A
 max ionic |displacement| tolerance             : 0.1000E-02   A
   max |stress component| tolerance             : 0.1000       GPa
 convergence tolerance window                   :          2   steps
 backup results every                           :          5   steps
 write geom trajectory file                     : on

 *******************************************************************************
  
 
                           -------------------------------
                                      Unit Cell
                           -------------------------------
        Real Lattice(A)                      Reciprocal Lattice(1/A)
    14.4528000     0.0000000     0.0000000        0.434738273   0.000000000   0.000000000
     0.0000000    14.4528000     0.0000000        0.000000000   0.434738273   0.000000000
     0.0000000     0.0000000    14.4528000        0.000000000   0.000000000   0.434738273
 
                       Lattice parameters(A)       Cell Angles
                    a =     14.452800          alpha =   90.000000
                    b =     14.452800          beta  =   90.000000
                    c =     14.452800          gamma =   90.000000
 
                       Current cell volume =          3018.950406       A**3
                                   density =             4.304791   AMU/A**3
                                           =             7.148274     g/cm^3
 
                           -------------------------------
                                     Cell Contents
                           -------------------------------
                         Total number of ions in cell =  256
                      Total number of species in cell =    2
                        Max number of any one species =  192
 
            xxxxxxxxxxxxxxxxxxxxxxxxxxxxxxxxxxxxxxxxxxxxxxxxxxxxxxxxxxxx
            x  Element    Atom        Fractional coordinates of atoms  x
            x            Number           u          v          w      x
            x----------------------------------------------------------x
            x  Al           1         0.562500   0.812500   0.812500   x 
            x  Al           2         0.687500   0.812500   0.937500   x 
            x  Al           3         0.187500   0.937500   0.812500   x 
            x  Al           4         0.937500   0.562500   0.937500   x 
            x  Al           5         0.687500   0.687500   0.812500   x 
            x  Al           6         0.562500   0.687500   0.937500   x 
            x  Al           7         0.312500   0.562500   0.812500   x 
            x  Al           8         0.437500   0.687500   0.812500   x 
            x  Al           9         0.437500   0.562500   0.937500   x 
            x  Al          10         0.187500   0.562500   0.937500   x 
            x  Al          11         0.062500   0.687500   0.937500   x 
            x  Al          12         0.937500   0.437500   0.812500   x 
            x  Al          13         0.562500   0.312500   0.812500   x 
            x  Al          14         0.687500   0.437500   0.812500   x 
            x  Al          15         0.312500   0.437500   0.937500   x 
            x  Al          16         0.062500   0.437500   0.937500   x 
            x  Al          17         0.812500   0.062500   0.812500   x 
            x  Al          18         0.937500   0.062500   0.937500   x 
            x  Al          19         0.562500   0.187500   0.937500   x 
            x  Al          20         0.437500   0.062500   0.937500   x 
            x  Al          21         0.312500   0.187500   0.937500   x 
            x  Al          22         0.062500   0.187500   0.937500   x 
            x  Al          23         0.437500   0.937500   0.562500   x 
            x  Al          24         0.437500   0.812500   0.687500   x 
            x  Al          25         0.062500   0.812500   0.562500   x 
            x  Al          26         0.062500   0.562500   0.562500   x 
            x  Al          27         0.937500   0.437500   0.562500   x 
            x  Al          28         0.937500   0.312500   0.687500   x 
            x  Al          29         0.312500   0.312500   0.562500   x 
            x  Al          30         0.187500   0.312500   0.687500   x 
            x  Al          31         0.812500   0.062500   0.562500   x 
            x  Al          32         0.437500   0.062500   0.687500   x 
            x  Al          33         0.062500   0.187500   0.687500   x 
            x  Al          34         0.937500   0.937500   0.312500   x 
            x  Al          35         0.937500   0.812500   0.437500   x 
            x  Al          36         0.437500   0.937500   0.312500   x 
            x  Al          37         0.312500   0.937500   0.437500   x 
            x  Al          38         0.812500   0.562500   0.312500   x 
            x  Al          39         0.937500   0.562500   0.437500   x 
            x  Al          40         0.687500   0.687500   0.312500   x 
            x  Al          41         0.687500   0.562500   0.437500   x 
            x  Al          42         0.437500   0.687500   0.312500   x 
            x  Al          43         0.312500   0.687500   0.437500   x 
            x  Al          44         0.687500   0.437500   0.312500   x 
            x  Al          45         0.687500   0.312500   0.437500   x 
            x  Al          46         0.062500   0.312500   0.312500   x 
            x  Al          47         0.687500   0.187500   0.312500   x 
            x  Al          48         0.812500   0.812500   0.062500   x 
            x  Al          49         0.937500   0.937500   0.062500   x 
            x  Al          50         0.937500   0.812500   0.187500   x 
            x  Al          51         0.562500   0.812500   0.062500   x 
            x  Al          52         0.312500   0.812500   0.062500   x 
            x  Al          53         0.437500   0.937500   0.062500   x 
            x  Al          54         0.937500   0.687500   0.062500   x 
            x  Al          55         0.812500   0.687500   0.187500   x 
            x  Al          56         0.562500   0.562500   0.062500   x 
            x  Al          57         0.687500   0.562500   0.187500   x 
            x  Al          58         0.062500   0.562500   0.062500   x 
            x  Al          59         0.187500   0.562500   0.187500   x 
            x  Al          60         0.812500   0.312500   0.062500   x 
            x  Al          61         0.812500   0.437500   0.187500   x 
            x  Al          62         0.687500   0.312500   0.187500   x 
            x  Al          63         0.312500   0.062500   0.062500   x 
            x  Al          64         0.437500   0.062500   0.187500   x 
            x  Ni           1         0.062500   0.187500   0.187500   x 
            x  Ni           2         0.187500   0.062500   0.187500   x 
            x  Ni           3         0.187500   0.187500   0.062500   x 
            x  Ni           4         0.062500   0.062500   0.062500   x 
            x  Ni           5         0.312500   0.187500   0.187500   x 
            x  Ni           6         0.437500   0.187500   0.062500   x 
            x  Ni           7         0.562500   0.187500   0.187500   x 
            x  Ni           8         0.687500   0.062500   0.187500   x 
            x  Ni           9         0.687500   0.187500   0.062500   x 
            x  Ni          10         0.562500   0.062500   0.062500   x 
            x  Ni          11         0.812500   0.187500   0.187500   x 
            x  Ni          12         0.937500   0.062500   0.187500   x 
            x  Ni          13         0.937500   0.187500   0.062500   x 
            x  Ni          14         0.812500   0.062500   0.062500   x 
            x  Ni          15         0.062500   0.437500   0.187500   x 
            x  Ni          16         0.187500   0.312500   0.187500   x 
            x  Ni          17         0.187500   0.437500   0.062500   x 
            x  Ni          18         0.062500   0.312500   0.062500   x 
            x  Ni          19         0.312500   0.437500   0.187500   x 
            x  Ni          20         0.437500   0.312500   0.187500   x 
            x  Ni          21         0.437500   0.437500   0.062500   x 
            x  Ni          22         0.312500   0.312500   0.062500   x 
            x  Ni          23         0.562500   0.437500   0.187500   x 
            x  Ni          24         0.687500   0.437500   0.062500   x 
            x  Ni          25         0.562500   0.312500   0.062500   x 
            x  Ni          26         0.937500   0.312500   0.187500   x 
            x  Ni          27         0.937500   0.437500   0.062500   x 
            x  Ni          28         0.062500   0.687500   0.187500   x 
            x  Ni          29         0.187500   0.687500   0.062500   x 
            x  Ni          30         0.312500   0.687500   0.187500   x 
            x  Ni          31         0.437500   0.562500   0.187500   x 
            x  Ni          32         0.437500   0.687500   0.062500   x 
            x  Ni          33         0.312500   0.562500   0.062500   x 
            x  Ni          34         0.562500   0.687500   0.187500   x 
            x  Ni          35         0.687500   0.687500   0.062500   x 
            x  Ni          36         0.937500   0.562500   0.187500   x 
            x  Ni          37         0.812500   0.562500   0.062500   x 
            x  Ni          38         0.062500   0.937500   0.187500   x 
            x  Ni          39         0.187500   0.812500   0.187500   x 
            x  Ni          40         0.187500   0.937500   0.062500   x 
            x  Ni          41         0.062500   0.812500   0.062500   x 
            x  Ni          42         0.312500   0.937500   0.187500   x 
            x  Ni          43         0.437500   0.812500   0.187500   x 
            x  Ni          44         0.562500   0.937500   0.187500   x 
            x  Ni          45         0.687500   0.812500   0.187500   x 
            x  Ni          46         0.687500   0.937500   0.062500   x 
            x  Ni          47         0.812500   0.937500   0.187500   x 
            x  Ni          48         0.062500   0.187500   0.437500   x 
            x  Ni          49         0.187500   0.062500   0.437500   x 
            x  Ni          50         0.187500   0.187500   0.312500   x 
            x  Ni          51         0.062500   0.062500   0.312500   x 
            x  Ni          52         0.312500   0.187500   0.437500   x 
            x  Ni          53         0.437500   0.062500   0.437500   x 
            x  Ni          54         0.437500   0.187500   0.312500   x 
            x  Ni          55         0.312500   0.062500   0.312500   x 
            x  Ni          56         0.562500   0.187500   0.437500   x 
            x  Ni          57         0.687500   0.062500   0.437500   x 
            x  Ni          58         0.562500   0.062500   0.312500   x 
            x  Ni          59         0.812500   0.187500   0.437500   x 
            x  Ni          60         0.937500   0.062500   0.437500   x 
            x  Ni          61         0.937500   0.187500   0.312500   x 
            x  Ni          62         0.812500   0.062500   0.312500   x 
            x  Ni          63         0.062500   0.437500   0.437500   x 
            x  Ni          64         0.187500   0.312500   0.437500   x 
            x  Ni          65         0.187500   0.437500   0.312500   x 
            x  Ni          66         0.312500   0.437500   0.437500   x 
            x  Ni          67         0.437500   0.312500   0.437500   x 
            x  Ni          68         0.437500   0.437500   0.312500   x 
            x  Ni          69         0.312500   0.312500   0.312500   x 
            x  Ni          70         0.562500   0.437500   0.437500   x 
            x  Ni          71         0.562500   0.312500   0.312500   x 
            x  Ni          72         0.812500   0.437500   0.437500   x 
            x  Ni          73         0.937500   0.312500   0.437500   x 
            x  Ni          74         0.937500   0.437500   0.312500   x 
            x  Ni          75         0.812500   0.312500   0.312500   x 
            x  Ni          76         0.062500   0.687500   0.437500   x 
            x  Ni          77         0.187500   0.562500   0.437500   x 
            x  Ni          78         0.187500   0.687500   0.312500   x 
            x  Ni          79         0.062500   0.562500   0.312500   x 
            x  Ni          80         0.437500   0.562500   0.437500   x 
            x  Ni          81         0.312500   0.562500   0.312500   x 
            x  Ni          82         0.562500   0.687500   0.437500   x 
            x  Ni          83         0.562500   0.562500   0.312500   x 
            x  Ni          84         0.812500   0.687500   0.437500   x 
            x  Ni          85         0.937500   0.687500   0.312500   x 
            x  Ni          86         0.062500   0.937500   0.437500   x 
            x  Ni          87         0.187500   0.812500   0.437500   x 
            x  Ni          88         0.187500   0.937500   0.312500   x 
            x  Ni          89         0.062500   0.812500   0.312500   x 
            x  Ni          90         0.437500   0.812500   0.437500   x 
            x  Ni          91         0.312500   0.812500   0.312500   x 
            x  Ni          92         0.562500   0.937500   0.437500   x 
            x  Ni          93         0.687500   0.812500   0.437500   x 
            x  Ni          94         0.687500   0.937500   0.312500   x 
            x  Ni          95         0.562500   0.812500   0.312500   x 
            x  Ni          96         0.812500   0.937500   0.437500   x 
            x  Ni          97         0.812500   0.812500   0.312500   x 
            x  Ni          98         0.187500   0.062500   0.687500   x 
            x  Ni          99         0.187500   0.187500   0.562500   x 
            x  Ni         100         0.062500   0.062500   0.562500   x 
            x  Ni         101         0.312500   0.187500   0.687500   x 
            x  Ni         102         0.437500   0.187500   0.562500   x 
            x  Ni         103         0.312500   0.062500   0.562500   x 
            x  Ni         104         0.562500   0.187500   0.687500   x 
            x  Ni         105         0.687500   0.062500   0.687500   x 
            x  Ni         106         0.687500   0.187500   0.562500   x 
            x  Ni         107         0.562500   0.062500   0.562500   x 
            x  Ni         108         0.812500   0.187500   0.687500   x 
            x  Ni         109         0.937500   0.062500   0.687500   x 
            x  Ni         110         0.937500   0.187500   0.562500   x 
            x  Ni         111         0.062500   0.437500   0.687500   x 
            x  Ni         112         0.187500   0.437500   0.562500   x 
            x  Ni         113         0.062500   0.312500   0.562500   x 
            x  Ni         114         0.312500   0.437500   0.687500   x 
            x  Ni         115         0.437500   0.312500   0.687500   x 
            x  Ni         116         0.437500   0.437500   0.562500   x 
            x  Ni         117         0.562500   0.437500   0.687500   x 
            x  Ni         118         0.687500   0.312500   0.687500   x 
            x  Ni         119         0.687500   0.437500   0.562500   x 
            x  Ni         120         0.562500   0.312500   0.562500   x 
            x  Ni         121         0.812500   0.437500   0.687500   x 
            x  Ni         122         0.812500   0.312500   0.562500   x 
            x  Ni         123         0.062500   0.687500   0.687500   x 
            x  Ni         124         0.187500   0.562500   0.687500   x 
            x  Ni         125         0.187500   0.687500   0.562500   x 
            x  Ni         126         0.312500   0.687500   0.687500   x 
            x  Ni         127         0.437500   0.562500   0.687500   x 
            x  Ni         128         0.437500   0.687500   0.562500   x 
            x  Ni         129         0.312500   0.562500   0.562500   x 
            x  Ni         130         0.562500   0.687500   0.687500   x 
            x  Ni         131         0.687500   0.562500   0.687500   x 
            x  Ni         132         0.687500   0.687500   0.562500   x 
            x  Ni         133         0.562500   0.562500   0.562500   x 
            x  Ni         134         0.812500   0.687500   0.687500   x 
            x  Ni         135         0.937500   0.562500   0.687500   x 
            x  Ni         136         0.937500   0.687500   0.562500   x 
            x  Ni         137         0.812500   0.562500   0.562500   x 
            x  Ni         138         0.062500   0.937500   0.687500   x 
            x  Ni         139         0.187500   0.812500   0.687500   x 
            x  Ni         140         0.187500   0.937500   0.562500   x 
            x  Ni         141         0.312500   0.937500   0.687500   x 
            x  Ni         142         0.312500   0.812500   0.562500   x 
            x  Ni         143         0.562500   0.937500   0.687500   x 
            x  Ni         144         0.687500   0.812500   0.687500   x 
            x  Ni         145         0.687500   0.937500   0.562500   x 
            x  Ni         146         0.562500   0.812500   0.562500   x 
            x  Ni         147         0.812500   0.937500   0.687500   x 
            x  Ni         148         0.937500   0.812500   0.687500   x 
            x  Ni         149         0.937500   0.937500   0.562500   x 
            x  Ni         150         0.812500   0.812500   0.562500   x 
            x  Ni         151         0.187500   0.062500   0.937500   x 
            x  Ni         152         0.187500   0.187500   0.812500   x 
            x  Ni         153         0.062500   0.062500   0.812500   x 
            x  Ni         154         0.437500   0.187500   0.812500   x 
            x  Ni         155         0.312500   0.062500   0.812500   x 
            x  Ni         156         0.687500   0.062500   0.937500   x 
            x  Ni         157         0.687500   0.187500   0.812500   x 
            x  Ni         158         0.562500   0.062500   0.812500   x 
            x  Ni         159         0.812500   0.187500   0.937500   x 
            x  Ni         160         0.937500   0.187500   0.812500   x 
            x  Ni         161         0.187500   0.312500   0.937500   x 
            x  Ni         162         0.187500   0.437500   0.812500   x 
            x  Ni         163         0.062500   0.312500   0.812500   x 
            x  Ni         164         0.437500   0.312500   0.937500   x 
            x  Ni         165         0.437500   0.437500   0.812500   x 
            x  Ni         166         0.312500   0.312500   0.812500   x 
            x  Ni         167         0.562500   0.437500   0.937500   x 
            x  Ni         168         0.687500   0.312500   0.937500   x 
            x  Ni         169         0.812500   0.437500   0.937500   x 
            x  Ni         170         0.937500   0.312500   0.937500   x 
            x  Ni         171         0.812500   0.312500   0.812500   x 
            x  Ni         172         0.187500   0.687500   0.812500   x 
            x  Ni         173         0.062500   0.562500   0.812500   x 
            x  Ni         174         0.312500   0.687500   0.937500   x 
            x  Ni         175         0.687500   0.562500   0.937500   x 
            x  Ni         176         0.562500   0.562500   0.812500   x 
            x  Ni         177         0.812500   0.687500   0.937500   x 
            x  Ni         178         0.937500   0.687500   0.812500   x 
            x  Ni         179         0.812500   0.562500   0.812500   x 
            x  Ni         180         0.062500   0.937500   0.937500   x 
            x  Ni         181         0.187500   0.812500   0.937500   x 
            x  Ni         182         0.062500   0.812500   0.812500   x 
            x  Ni         183         0.312500   0.937500   0.937500   x 
            x  Ni         184         0.437500   0.812500   0.937500   x 
            x  Ni         185         0.437500   0.937500   0.812500   x 
            x  Ni         186         0.312500   0.812500   0.812500   x 
            x  Ni         187         0.562500   0.937500   0.937500   x 
            x  Ni         188         0.687500   0.937500   0.812500   x 
            x  Ni         189         0.812500   0.937500   0.937500   x 
            x  Ni         190         0.937500   0.812500   0.937500   x 
            x  Ni         191         0.937500   0.937500   0.812500   x 
            x  Ni         192         0.812500   0.812500   0.812500   x 
            xxxxxxxxxxxxxxxxxxxxxxxxxxxxxxxxxxxxxxxxxxxxxxxxxxxxxxxxxxxx
 
 
                         No user defined ionic velocities
 
                           -------------------------------
                                   Details of Species
                           -------------------------------
 
                               Mass of species in AMU
                                    Al   26.9815400
                                    Ni   58.6934000
 
                          Electric Quadrupole Moment (Barn)
                                    Al    0.1466000 Isotope 27
                                    Ni    0.1620000 Isotope 61
 
                          Files used for pseudopotentials:
                                    Al 3|2.2|2.2|1.4|4|5|5|30:31:32U2U2
                                    Ni 3|2.4|2.4|1.0|8|9|10|40:41:32U2U2(qc=5.5)
 
                           -------------------------------
                              k-Points For BZ Sampling
                           -------------------------------
                       MP grid size for SCF calculation is  1  1  1
                            with an offset of   0.000  0.000  0.000
                       Number of kpoints used =             1
 
                           -------------------------------
                               Symmetry and Constraints
                           -------------------------------
 
                      Maximum deviation from symmetry =  0.00000         ANG
 
                      Number of symmetry operations   =           1
                      Number of ionic constraints     =           3
                      Point group of crystal =     1: C1, 1, 1
                      Space group of crystal =     1: P1, P 1
 
             Set iprint > 1 for details on symmetry rotations/translations
 
                         Centre of mass is constrained
             Set iprint > 1 for details of linear ionic constraints
 
                         Number of cell constraints= 0
                         Cell constraints are:  1 2 3 4 5 6
 
                         External pressure/stress (GPa)
                          0.00000   0.00000   0.00000
                                    0.00000   0.00000
                                              0.00000
  
+---------------- MEMORY AND SCRATCH DISK ESTIMATES PER PROCESS --------------+
|                                                     Memory          Disk    |
| Baseline code, static data and system overhead     6719.0 MB         0.0 MB |
| BLAS internal memory storage                          0.0 MB         0.0 MB |
| Model and support data                              703.7 MB         0.0 MB |
| Electronic energy minimisation requirements         158.6 MB         0.0 MB |
| Force calculation requirements                        5.4 MB         0.0 MB |
|                                               ----------------------------- |
| Approx. total storage required per process         7581.3 MB         0.0 MB |
|                                                                             |
| Requirements will fluctuate during execution and may exceed these estimates |
+-----------------------------------------------------------------------------+
Calculating finite basis set correction with  3 cut-off energies.
Calculating total energy with cut-off of  890.000 eV.
------------------------------------------------------------------------ <-- SCF
SCF loop      Energy           Fermi           Energy gain       Timer   <-- SCF
                               energy          per atom          (sec)   <-- SCF
------------------------------------------------------------------------ <-- SCF
Initial  -2.20474690E+005  0.00000000E+000                        20.25  <-- SCF
      1  -2.63867067E+005  7.18092895E+000   1.69501472E+002      59.38  <-- SCF
      2  -2.70719027E+005  3.84123262E+000   2.67654688E+001      93.65  <-- SCF
      3  -2.71442508E+005  3.74140380E+000   2.82609976E+000     129.98  <-- SCF
      4  -2.71504314E+005  3.86417727E+000   2.41428631E-001     161.35  <-- SCF
      5  -2.71844410E+005  6.76490701E+000   1.32849939E+000     201.60  <-- SCF
      6  -2.71603105E+005  5.72500776E+000  -9.42598171E-001     249.55  <-- SCF
      7  -2.71503142E+005  4.80550749E+000  -3.90478213E-001     290.51  <-- SCF
      8  -2.71477053E+005  4.52151650E+000  -1.01912395E-001     335.00  <-- SCF
      9  -2.71473289E+005  4.51746170E+000  -1.47029812E-002     374.67  <-- SCF
     10  -2.71488025E+005  4.63352758E+000   5.75619460E-002     415.14  <-- SCF
     11  -2.71476435E+005  4.51569915E+000  -4.52720146E-002     455.41  <-- SCF
     12  -2.71471130E+005  4.46885276E+000  -2.07215935E-002     494.50  <-- SCF
     13  -2.71470967E+005  4.47478365E+000  -6.36940488E-004     534.59  <-- SCF
     14  -2.71470928E+005  4.47979831E+000  -1.54090433E-004     573.75  <-- SCF
     15  -2.71470089E+005  4.47538750E+000  -3.27837126E-003     612.26  <-- SCF
     16  -2.71470106E+005  4.47672537E+000   6.81082641E-005     651.65  <-- SCF
     17  -2.71470102E+005  4.48086391E+000  -1.74360267E-005     690.70  <-- SCF
     18  -2.71470043E+005  4.48079611E+000  -2.29393560E-004     729.08  <-- SCF
     19  -2.71470066E+005  4.48197756E+000   8.86335039E-005     768.51  <-- SCF
     20  -2.71470066E+005  4.48308315E+000   1.05573361E-006     807.42  <-- SCF
     21  -2.71470034E+005  4.48368120E+000  -1.26102860E-004     845.59  <-- SCF
     22  -2.71470034E+005  4.48335234E+000   6.89167042E-007     884.41  <-- SCF
     23  -2.71470035E+005  4.48339869E+000   2.96701667E-006     921.03  <-- SCF
     24  -2.71470032E+005  4.48345135E+000  -1.02091856E-005     954.80  <-- SCF
     25  -2.71470032E+005  4.48344303E+000  -2.41828543E-007     979.42  <-- SCF
     26  -2.71470032E+005  4.48343683E+000   6.37015530E-007    1004.12  <-- SCF
------------------------------------------------------------------------ <-- SCF
 
Final energy, E             =  -271464.4887035     eV
Final free energy (E-TS)    =  -271470.0320185     eV
(energies not corrected for finite basis set)
 
NB est. 0K energy (E-0.5TS)      =  -271467.2603610     eV
 
Calculating total energy with cut-off of  895.000 eV.
------------------------------------------------------------------------ <-- SCF
SCF loop      Energy           Fermi           Energy gain       Timer   <-- SCF
                               energy          per atom          (sec)   <-- SCF
------------------------------------------------------------------------ <-- SCF
Initial  -2.71464480E+005  0.00000000E+000                      1016.73  <-- SCF
      1  -2.71470532E+005  4.48923116E+000   2.36383861E-002    1055.68  <-- SCF
      2  -2.71470533E+005  4.48923006E+000   3.30420548E-006    1092.11  <-- SCF
      3  -2.71591844E+005  4.95991353E+000   4.73870949E-001    1132.82  <-- SCF
      4  -2.71484788E+005  4.52206186E+000  -4.18186319E-001    1177.68  <-- SCF
      5  -2.71471127E+005  4.45520284E+000  -5.33639935E-002    1218.51  <-- SCF
      6  -2.71470250E+005  4.45691260E+000  -3.42496360E-003    1258.45  <-- SCF
      7  -2.71470251E+005  4.47170582E+000   5.28715955E-006    1298.86  <-- SCF
      8  -2.71470163E+005  4.48856403E+000  -3.44715832E-004    1338.37  <-- SCF
      9  -2.71470087E+005  4.48884983E+000  -2.95724828E-004    1377.33  <-- SCF
     10  -2.71470071E+005  4.48149770E+000  -6.53981276E-005    1416.77  <-- SCF
     11  -2.71470050E+005  4.47753890E+000  -7.99310632E-005    1455.33  <-- SCF
     12  -2.71470048E+005  4.47743453E+000  -6.58381818E-006    1494.36  <-- SCF
     13  -2.71470044E+005  4.48007043E+000  -1.62673286E-005    1531.85  <-- SCF
     14  -2.71470040E+005  4.48084951E+000  -1.49327419E-005    1568.85  <-- SCF
     15  -2.71470040E+005  4.48151720E+000  -1.65337700E-006    1603.94  <-- SCF
     16  -2.71470036E+005  4.48267195E+000  -1.70292840E-005    1642.13  <-- SCF
     17  -2.71470033E+005  4.48323847E+000  -1.18563370E-005    1676.42  <-- SCF
     18  -2.71470032E+005  4.48325897E+000  -3.91263172E-007    1701.32  <-- SCF
     19  -2.71470033E+005  4.48349551E+000   1.04428583E-006    1726.15  <-- SCF
     20  -2.71470032E+005  4.48344436E+000  -2.09270159E-006    1750.92  <-- SCF
     21  -2.71470032E+005  4.48348497E+000  -1.21341862E-007    1775.75  <-- SCF
     22  -2.71470032E+005  4.48349591E+000   2.30956749E-008    1800.49  <-- SCF
------------------------------------------------------------------------ <-- SCF
 
Final energy, E             =  -271464.4890379     eV
Final free energy (E-TS)    =  -271470.0321918     eV
(energies not corrected for finite basis set)
 
NB est. 0K energy (E-0.5TS)      =  -271467.2606148     eV
 
Calculating total energy with cut-off of  900.000 eV.
------------------------------------------------------------------------ <-- SCF
SCF loop      Energy           Fermi           Energy gain       Timer   <-- SCF
                               energy          per atom          (sec)   <-- SCF
------------------------------------------------------------------------ <-- SCF
Initial  -2.71464489E+005  0.00000000E+000                      1813.11  <-- SCF
      1  -2.71470054E+005  4.48589752E+000   2.17410781E-002    1852.26  <-- SCF
      2  -2.71470054E+005  4.48589748E+000   1.56633768E-007    1879.28  <-- SCF
      3  -2.71475425E+005  4.49889275E+000   2.09772181E-002    1921.29  <-- SCF
      4  -2.71470113E+005  4.47742866E+000  -2.07492261E-002    1962.17  <-- SCF
      5  -2.71470032E+005  4.47955129E+000  -3.15146168E-004    2003.54  <-- SCF
      6  -2.71470035E+005  4.48135932E+000   1.30418419E-005    2044.96  <-- SCF
      7  -2.71470037E+005  4.48437036E+000   4.90409242E-006    2083.75  <-- SCF
      8  -2.71470033E+005  4.48531688E+000  -1.30824047E-005    2121.69  <-- SCF
      9  -2.71470033E+005  4.48461073E+000  -1.53310494E-006    2148.49  <-- SCF
     10  -2.71470033E+005  4.48343504E+000  -1.16568125E-006    2173.85  <-- SCF
     11  -2.71470033E+005  4.48321298E+000  -4.30352637E-007    2199.20  <-- SCF
     12  -2.71470033E+005  4.48320814E+000   1.34901394E-007    2224.59  <-- SCF
------------------------------------------------------------------------ <-- SCF
 
Final energy, E             =  -271464.4904985     eV
Final free energy (E-TS)    =  -271470.0325476     eV
(energies not corrected for finite basis set)
 
NB est. 0K energy (E-0.5TS)      =  -271467.2615230     eV
 
 For future reference: finite basis dEtot/dlog(Ecut) =      -0.050258eV
 Total energy corrected for finite basis set = -271470.032611 eV
 
+---------------- MEMORY AND SCRATCH DISK ESTIMATES PER PROCESS --------------+
|                                                     Memory          Disk    |
| Model and support data                              723.2 MB         0.0 MB |
| Electronic energy minimisation requirements         158.6 MB         0.0 MB |
| Geometry minimisation requirements                  195.6 MB         0.0 MB |
|                                               ----------------------------- |
| Approx. total storage required per process         1077.4 MB         0.0 MB |
|                                                                             |
| Requirements will fluctuate during execution and may exceed these estimates |
+-----------------------------------------------------------------------------+
 
 
 ************************************** Forces **************************************
 *                                                                                  *
 *                           Cartesian components (eV/A)                            *
 * -------------------------------------------------------------------------------- *
 *                         x                    y                    z              *
 *                                                                                  *
 * Al              1      0.21349              2.15608             -0.69708         *
 * Al              2      1.34430              1.42567             -0.21782         *
 * Al              3     -0.08728              0.03200             -0.04598         *
 * Al              4     -2.03736              0.06938             -0.61766         *
 * Al              5      1.33684             -1.32197             -1.51257         *
 * Al              6      0.11141             -0.61544              0.52828         *
 * Al              7     -0.75425              0.00665             -2.35695         *
 * Al              8     -0.79688             -0.07604             -0.84464         *
 * Al              9      0.04977             -0.77121              0.74429         *
 * Al             10      0.77229              0.79089              0.00686         *
 * Al             11      0.63341              2.12787             -1.33021         *
 * Al             12     -0.78299             -0.06102             -0.75267         *
 * Al             13     -0.72748             -0.06307             -0.82599         *
 * Al             14      0.72963              0.70410             -0.04943         *
 * Al             15      0.04547             -2.27848              0.73956         *
 * Al             16      0.69915             -2.24958              0.02250         *
 * Al             17     -0.72094              0.00845             -0.85065         *
 * Al             18      0.06736              0.04435              0.03011         *
 * Al             19      0.78585             -0.00428              0.69806         *
 * Al             20      0.75141             -0.71960             -1.50011         *
 * Al             21     -0.79193              1.51186             -0.73756         *
 * Al             22      0.70072              0.69139              0.06031         *
 * Al             23      0.79136              0.03082             -0.72536         *
 * Al             24     -0.76338             -0.00900             -0.83901         *
 * Al             25      0.75645              0.00232              0.79876         *
 * Al             26      1.50753              0.78860              0.75557         *
 * Al             27     -0.72641             -0.76867              0.05360         *
 * Al             28     -0.80208             -0.73382             -0.06934         *
 * Al             29      0.75793             -0.01189             -0.79618         *
 * Al             30      0.03110              0.71883              0.69116         *
 * Al             31     -0.04759              0.03708             -0.02321         *
 * Al             32      0.06275              0.74405              0.66728         *
 * Al             33     -0.01171             -1.53042             -0.11833         *
 * Al             34      0.08222              1.55805              0.06328         *
 * Al             35     -0.72280             -0.69971              0.02800         *
 * Al             36      0.71613             -0.69258              0.07024         *
 * Al             37     -1.51642              0.03481             -0.01387         *
 * Al             38      1.95548              0.04068              0.49065         *
 * Al             39      0.08253              0.77691             -0.71946         *
 * Al             40     -1.40642              2.06231              0.63909         *
 * Al             41     -0.87621              0.03057              2.36021         *
 * Al             42      0.65748             -0.06146             -0.70443         *
 * Al             43     -0.73338             -0.05310              0.75445         *
 * Al             44     -1.47360             -0.59805              0.60997         *
 * Al             45     -0.12120             -0.11635              1.58347         *
 * Al             46      0.10923             -0.13649              0.02321         *
 * Al             47     -0.02125             -1.53713              0.05148         *
 * Al             48     -1.26309              0.66520             -0.52936         *
 * Al             49      0.78682              0.82832              0.04210         *
 * Al             50      1.36098             -0.10133              1.34364         *
 * Al             51      0.02448              0.05109              1.61384         *
 * Al             52     -0.85087             -0.68002              0.12151         *
 * Al             53      0.81405             -0.72219              0.03156         *
 * Al             54      0.04878              0.04596              0.10380         *
 * Al             55      0.09176              0.03496              0.05318         *
 * Al             56     -0.12106             -0.80578              0.81933         *
 * Al             57     -1.28453             -0.00254             -1.02622         *
 * Al             58     -0.16349             -0.56577              2.08958         *
 * Al             59      0.78217             -0.03932              0.84246         *
 * Al             60      0.80924             -0.87532             -1.48812         *
 * Al             61      2.19809              0.17027             -0.60794         *
 * Al             62     -1.57970             -0.81455             -0.77244         *
 * Al             63     -2.36294              0.04625              0.80780         *
 * Al             64      0.73551              1.50533              0.81900         *
 * Ni              1      0.01292             -0.13574             -0.06990         *
 * Ni              2     -0.01336              0.06533              0.10755         *
 * Ni              3      0.09741              0.11624              0.21819         *
 * Ni              4     -0.02927              0.01219             -0.05890         *
 * Ni              5      0.00097              0.02442              0.05917         *
 * Ni              6     -0.34476             -0.19954             -0.26156         *
 * Ni              7      0.13732              0.14853             -0.00558         *
 * Ni              8     -0.04533             -0.00486             -0.03374         *
 * Ni              9      0.10265             -0.08929              0.16206         *
 * Ni             10     -0.13813             -0.09393              0.06685         *
 * Ni             11     -0.06765              0.06345              0.08030         *
 * Ni             12      0.06948              0.13164              0.00749         *
 * Ni             13      0.18752             -0.09652              0.13758         *
 * Ni             14      0.00073              0.07947              0.02550         *
 * Ni             15     -0.00137              0.06712             -0.06988         *
 * Ni             16      0.03826             -0.01036             -0.05547         *
 * Ni             17     -0.29712              0.22492             -0.20835         *
 * Ni             18     -0.06475             -0.00851              0.24576         *
 * Ni             19      0.09006             -0.09019              0.02740         *
 * Ni             20      0.01323             -0.05320             -0.01674         *
 * Ni             21     -0.05149             -0.01155             -0.03373         *
 * Ni             22     -0.02286             -0.03906              0.23908         *
 * Ni             23      0.02894              0.10722              0.19342         *
 * Ni             24      0.35078             -0.19209              0.16950         *
 * Ni             25     -0.16508              0.14607              0.00431         *
 * Ni             26     -0.10110             -0.12497             -0.21030         *
 * Ni             27      0.36693             -0.01282              0.00466         *
 * Ni             28      0.10802             -0.01103              0.05892         *
 * Ni             29     -0.33848             -0.33580             -0.04157         *
 * Ni             30     -0.02324              0.08732              0.08172         *
 * Ni             31     -0.22626             -0.04019              0.04162         *
 * Ni             32      0.33186             -0.42844             -0.05366         *
 * Ni             33      0.08511             -0.13950             -0.06501         *
 * Ni             34      0.02784             -0.09915             -0.01731         *
 * Ni             35     -0.10742              0.10391             -0.31073         *
 * Ni             36      0.08507              0.00640              0.17161         *
 * Ni             37     -0.18695              0.01873             -0.11893         *
 * Ni             38     -0.04738             -0.09876              0.03137         *
 * Ni             39     -0.03604             -0.03657              0.08950         *
 * Ni             40     -0.13473             -0.05089             -0.08647         *
 * Ni             41      0.00041              0.02532              0.08821         *
 * Ni             42      0.23527              0.31147             -0.24357         *
 * Ni             43     -0.07044              0.12467             -0.20722         *
 * Ni             44     -0.00910              0.14239             -0.00265         *
 * Ni             45      0.08896              0.10482              0.18878         *
 * Ni             46     -0.02129             -0.05649             -0.17249         *
 * Ni             47      0.16404             -0.15579             -0.19151         *
 * Ni             48     -0.03968             -0.07258              0.06800         *
 * Ni             49     -0.13448              0.07276             -0.01994         *
 * Ni             50      0.07007              0.00466              0.02952         *
 * Ni             51      0.10139              0.13584             -0.02518         *
 * Ni             52      0.01076             -0.11463             -0.10157         *
 * Ni             53     -0.09845             -0.10558             -0.01984         *
 * Ni             54     -0.01597              0.07955              0.04518         *
 * Ni             55      0.07499             -0.05983              0.03491         *
 * Ni             56      0.01373              0.05579             -0.00900         *
 * Ni             57     -0.10101             -0.04570              0.04595         *
 * Ni             58     -0.15391             -0.12243              0.07439         *
 * Ni             59      0.09949              0.12629             -0.18354         *
 * Ni             60      0.16391              0.09122              0.00441         *
 * Ni             61     -0.08943             -0.16458              0.03947         *
 * Ni             62     -0.04048             -0.03305              0.03934         *
 * Ni             63     -0.06019              0.32896              0.32069         *
 * Ni             64      0.08319             -0.04732             -0.01752         *
 * Ni             65      0.10506             -0.03326              0.10587         *
 * Ni             66      0.01387              0.11343             -0.07447         *
 * Ni             67      0.02417              0.00444             -0.03693         *
 * Ni             68     -0.05293              0.05692             -0.02357         *
 * Ni             69     -0.02513              0.02743              0.03438         *
 * Ni             70      0.08008             -0.05898             -0.08959         *
 * Ni             71      0.26454             -0.05136              0.02247         *
 * Ni             72     -0.18871              0.18316             -0.31683         *
 * Ni             73     -0.09487             -0.22191              0.04738         *
 * Ni             74     -0.08477              0.15481              0.04140         *
 * Ni             75     -0.33952              0.12176             -0.13594         *
 * Ni             76      0.15086              0.02131             -0.09776         *
 * Ni             77      0.04843             -0.10841             -0.21138         *
 * Ni             78     -0.10385              0.07019             -0.02408         *
 * Ni             79      0.06507             -0.01148             -0.05098         *
 * Ni             80     -0.03311             -0.00170              0.03501         *
 * Ni             81      0.15540             -0.07389              0.13438         *
 * Ni             82      0.07551             -0.01158              0.14582         *
 * Ni             83      0.22760             -0.27253              0.13308         *
 * Ni             84     -0.35246             -0.31123              0.02404         *
 * Ni             85      0.08655             -0.27530             -0.10825         *
 * Ni             86     -0.05221             -0.02485             -0.03118         *
 * Ni             87     -0.03614              0.02129             -0.15559         *
 * Ni             88     -0.13573              0.02616             -0.01234         *
 * Ni             89     -0.01870              0.13704              0.00542         *
 * Ni             90      0.08817              0.09117              0.07959         *
 * Ni             91     -0.14727             -0.11134             -0.10781         *
 * Ni             92      0.24286              0.00561              0.02907         *
 * Ni             93      0.00589              0.10245              0.09662         *
 * Ni             94      0.02351              0.00314              0.03122         *
 * Ni             95      0.08901              0.14343              0.10133         *
 * Ni             96     -0.03926             -0.08936             -0.09853         *
 * Ni             97      0.01556              0.26342             -0.05807         *
 * Ni             98      0.13554              0.02547             -0.13437         *
 * Ni             99     -0.03256              0.08957              0.00573         *
 * Ni            100      0.00762             -0.14200             -0.07193         *
 * Ni            101     -0.12545              0.01346              0.02582         *
 * Ni            102      0.07765              0.03222             -0.00902         *
 * Ni            103      0.12393             -0.00962             -0.00462         *
 * Ni            104      0.14342             -0.00636             -0.18178         *
 * Ni            105     -0.14817              0.04505             -0.02874         *
 * Ni            106     -0.12066             -0.06307              0.06467         *
 * Ni            107      0.04986             -0.00085             -0.08880         *
 * Ni            108     -0.22118              0.09123             -0.04503         *
 * Ni            109      0.07918             -0.17981              0.03598         *
 * Ni            110      0.17759              0.14190             -0.02320         *
 * Ni            111     -0.18439              0.13161             -0.09937         *
 * Ni            112      0.18821             -0.04373             -0.08188         *
 * Ni            113      0.02674             -0.09149              0.02026         *
 * Ni            114      0.06714             -0.11438             -0.17875         *
 * Ni            115      0.03797             -0.02095              0.00321         *
 * Ni            116      0.02607              0.01565              0.03533         *
 * Ni            117      0.03681             -0.00233             -0.06533         *
 * Ni            118      0.04018             -0.03317              0.02353         *
 * Ni            119     -0.01917             -0.00152              0.14034         *
 * Ni            120     -0.14828             -0.01105              0.08626         *
 * Ni            121      0.10870             -0.02939             -0.20590         *
 * Ni            122      0.11687             -0.07576              0.11038         *
 * Ni            123     -0.00569              0.04289              0.18983         *
 * Ni            124      0.02750             -0.01918             -0.10229         *
 * Ni            125      0.00152             -0.06260              0.11979         *
 * Ni            126      0.08277             -0.03680              0.03794         *
 * Ni            127      0.00146              0.01544             -0.01159         *
 * Ni            128      0.07166             -0.20414              0.00622         *
 * Ni            129      0.01457             -0.10554              0.08143         *
 * Ni            130     -0.19233              0.23039              0.19621         *
 * Ni            131     -0.04275              0.00531             -0.21611         *
 * Ni            132      0.09634              0.10630              0.08953         *
 * Ni            133     -0.06371              0.03325             -0.00977         *
 * Ni            134      0.06156             -0.00940             -0.16413         *
 * Ni            135     -0.10170              0.20747             -0.03239         *
 * Ni            136     -0.09756              0.03667              0.10785         *
 * Ni            137      0.07530              0.01067              0.10884         *
 * Ni            138     -0.11675              0.15785             -0.03246         *
 * Ni            139      0.10261             -0.14255             -0.04625         *
 * Ni            140      0.00441              0.14406              0.12807         *
 * Ni            141      0.11950             -0.00524             -0.23019         *
 * Ni            142     -0.07217              0.26424              0.08549         *
 * Ni            143     -0.04470             -0.09347             -0.17180         *
 * Ni            144      0.02337              0.01296              0.04763         *
 * Ni            145     -0.08447             -0.04346              0.05769         *
 * Ni            146     -0.03487             -0.01749              0.00046         *
 * Ni            147     -0.01140             -0.17484              0.01971         *
 * Ni            148     -0.07517              0.02681              0.02076         *
 * Ni            149      0.08480             -0.05793              0.03399         *
 * Ni            150     -0.07275              0.06121              0.00796         *
 * Ni            151     -0.00572             -0.05296              0.16636         *
 * Ni            152      0.03161             -0.15906             -0.20732         *
 * Ni            153     -0.13754             -0.00247              0.02614         *
 * Ni            154     -0.03125              0.14872              0.16307         *
 * Ni            155     -0.11301              0.13167             -0.00285         *
 * Ni            156      0.08449             -0.11794              0.03520         *
 * Ni            157     -0.07969              0.05557             -0.06028         *
 * Ni            158      0.14356             -0.00727              0.04938         *
 * Ni            159     -0.15271             -0.14167             -0.11353         *
 * Ni            160     -0.07469              0.04868              0.16741         *
 * Ni            161      0.03351             -0.07329              0.00264         *
 * Ni            162      0.17191              0.38633              0.40352         *
 * Ni            163     -0.00559             -0.01039             -0.23552         *
 * Ni            164      0.22119              0.10208              0.12586         *
 * Ni            165     -0.36869              0.24158              0.02322         *
 * Ni            166      0.18422             -0.01996             -0.15045         *
 * Ni            167      0.00000             -0.16933              0.15383         *
 * Ni            168     -0.23950             -0.03747             -0.16081         *
 * Ni            169     -0.05278              0.11424             -0.02700         *
 * Ni            170     -0.06064              0.02141             -0.11197         *
 * Ni            171      0.04834             -0.14558              0.11198         *
 * Ni            172      0.01946              0.00259              0.03574         *
 * Ni            173     -0.10824             -0.25654              0.28380         *
 * Ni            174      0.09683             -0.24002             -0.46699         *
 * Ni            175      0.07190              0.13858              0.18210         *
 * Ni            176     -0.35653              0.34833              0.00134         *
 * Ni            177      0.09346              0.21921             -0.10480         *
 * Ni            178     -0.05730             -0.00915             -0.13412         *
 * Ni            179      0.15708              0.09090             -0.17813         *
 * Ni            180     -0.06046             -0.16426              0.14755         *
 * Ni            181     -0.01249              0.02607             -0.02715         *
 * Ni            182     -0.12130              0.05286             -0.17281         *
 * Ni            183      0.45223              0.08441              0.32404         *
 * Ni            184      0.17443             -0.03949             -0.06907         *
 * Ni            185     -0.10045             -0.19430              0.01375         *
 * Ni            186      0.01363             -0.15160             -0.07947         *
 * Ni            187      0.15717              0.03800              0.14416         *
 * Ni            188     -0.11589             -0.00937             -0.07268         *
 * Ni            189      0.12716             -0.01387              0.12883         *
 * Ni            190     -0.17418              0.00826             -0.00853         *
 * Ni            191      0.07220              0.11817             -0.08574         *
 * Ni            192      0.00182             -0.04593              0.01411         *
 *                                                                                  *
 ************************************************************************************
 
 ***************** Stress Tensor *****************
 *                                               *
 *          Cartesian components (GPa)           *
 * --------------------------------------------- *
 *             x             y             z     *
 *                                               *
 *  x     -0.028652     -0.433877     -0.312137  *
 *  y     -0.433877     -0.560752      0.463387  *
 *  z     -0.312137      0.463387     -0.706994  *
 *                                               *
 *  Pressure:    0.4321                          *
 *                                               *
 *************************************************
 EXP precond LBFGS => estimated nearest neighbor distance :  2.555       A
 EXP precond LBFGS => estimated cutoff distance :  5.110       A
 
 ************************************** Forces **************************************
 *                                                                                  *
 *                           Cartesian components (eV/A)                            *
 * -------------------------------------------------------------------------------- *
 *                         x                    y                    z              *
 *                                                                                  *
 * Al              1      0.21349              2.15608             -0.69708         *
 * Al              2      1.34430              1.42567             -0.21782         *
 * Al              3     -0.08728              0.03200             -0.04598         *
 * Al              4     -2.03736              0.06938             -0.61766         *
 * Al              5      1.33684             -1.32197             -1.51257         *
 * Al              6      0.11141             -0.61544              0.52828         *
 * Al              7     -0.75425              0.00665             -2.35695         *
 * Al              8     -0.79688             -0.07604             -0.84464         *
 * Al              9      0.04977             -0.77121              0.74429         *
 * Al             10      0.77229              0.79089              0.00686         *
 * Al             11      0.63341              2.12787             -1.33021         *
 * Al             12     -0.78299             -0.06102             -0.75267         *
 * Al             13     -0.72748             -0.06307             -0.82599         *
 * Al             14      0.72963              0.70410             -0.04943         *
 * Al             15      0.04547             -2.27848              0.73956         *
 * Al             16      0.69915             -2.24958              0.02250         *
 * Al             17     -0.72094              0.00845             -0.85065         *
 * Al             18      0.06736              0.04435              0.03011         *
 * Al             19      0.78585             -0.00428              0.69806         *
 * Al             20      0.75141             -0.71960             -1.50011         *
 * Al             21     -0.79193              1.51186             -0.73756         *
 * Al             22      0.70072              0.69139              0.06031         *
 * Al             23      0.79136              0.03082             -0.72536         *
 * Al             24     -0.76338             -0.00900             -0.83901         *
 * Al             25      0.75645              0.00232              0.79876         *
 * Al             26      1.50753              0.78860              0.75557         *
 * Al             27     -0.72641             -0.76867              0.05360         *
 * Al             28     -0.80208             -0.73382             -0.06934         *
 * Al             29      0.75793             -0.01189             -0.79618         *
 * Al             30      0.03110              0.71883              0.69116         *
 * Al             31     -0.04759              0.03708             -0.02321         *
 * Al             32      0.06275              0.74405              0.66728         *
 * Al             33     -0.01171             -1.53042             -0.11833         *
 * Al             34      0.08222              1.55805              0.06328         *
 * Al             35     -0.72280             -0.69971              0.02800         *
 * Al             36      0.71613             -0.69258              0.07024         *
 * Al             37     -1.51642              0.03481             -0.01387         *
 * Al             38      1.95548              0.04068              0.49065         *
 * Al             39      0.08253              0.77691             -0.71946         *
 * Al             40     -1.40642              2.06231              0.63909         *
 * Al             41     -0.87621              0.03057              2.36021         *
 * Al             42      0.65748             -0.06146             -0.70443         *
 * Al             43     -0.73338             -0.05310              0.75445         *
 * Al             44     -1.47360             -0.59805              0.60997         *
 * Al             45     -0.12120             -0.11635              1.58347         *
 * Al             46      0.10923             -0.13649              0.02321         *
 * Al             47     -0.02125             -1.53713              0.05148         *
 * Al             48     -1.26309              0.66520             -0.52936         *
 * Al             49      0.78682              0.82832              0.04210         *
 * Al             50      1.36098             -0.10133              1.34364         *
 * Al             51      0.02448              0.05109              1.61384         *
 * Al             52     -0.85087             -0.68002              0.12151         *
 * Al             53      0.81405             -0.72219              0.03156         *
 * Al             54      0.04878              0.04596              0.10380         *
 * Al             55      0.09176              0.03496              0.05318         *
 * Al             56     -0.12106             -0.80578              0.81933         *
 * Al             57     -1.28453             -0.00254             -1.02622         *
 * Al             58     -0.16349             -0.56577              2.08958         *
 * Al             59      0.78217             -0.03932              0.84246         *
 * Al             60      0.80924             -0.87532             -1.48812         *
 * Al             61      2.19809              0.17027             -0.60794         *
 * Al             62     -1.57970             -0.81455             -0.77244         *
 * Al             63     -2.36294              0.04625              0.80780         *
 * Al             64      0.73551              1.50533              0.81900         *
 * Ni              1      0.01292             -0.13574             -0.06990         *
 * Ni              2     -0.01336              0.06533              0.10755         *
 * Ni              3      0.09741              0.11624              0.21819         *
 * Ni              4     -0.02927              0.01219             -0.05890         *
 * Ni              5      0.00097              0.02442              0.05917         *
 * Ni              6     -0.34476             -0.19954             -0.26156         *
 * Ni              7      0.13732              0.14853             -0.00558         *
 * Ni              8     -0.04533             -0.00486             -0.03374         *
 * Ni              9      0.10265             -0.08929              0.16206         *
 * Ni             10     -0.13813             -0.09393              0.06685         *
 * Ni             11     -0.06765              0.06345              0.08030         *
 * Ni             12      0.06948              0.13164              0.00749         *
 * Ni             13      0.18752             -0.09652              0.13758         *
 * Ni             14      0.00073              0.07947              0.02550         *
 * Ni             15     -0.00137              0.06712             -0.06988         *
 * Ni             16      0.03826             -0.01036             -0.05547         *
 * Ni             17     -0.29712              0.22492             -0.20835         *
 * Ni             18     -0.06475             -0.00851              0.24576         *
 * Ni             19      0.09006             -0.09019              0.02740         *
 * Ni             20      0.01323             -0.05320             -0.01674         *
 * Ni             21     -0.05149             -0.01155             -0.03373         *
 * Ni             22     -0.02286             -0.03906              0.23908         *
 * Ni             23      0.02894              0.10722              0.19342         *
 * Ni             24      0.35078             -0.19209              0.16950         *
 * Ni             25     -0.16508              0.14607              0.00431         *
 * Ni             26     -0.10110             -0.12497             -0.21030         *
 * Ni             27      0.36693             -0.01282              0.00466         *
 * Ni             28      0.10802             -0.01103              0.05892         *
 * Ni             29     -0.33848             -0.33580             -0.04157         *
 * Ni             30     -0.02324              0.08732              0.08172         *
 * Ni             31     -0.22626             -0.04019              0.04162         *
 * Ni             32      0.33186             -0.42844             -0.05366         *
 * Ni             33      0.08511             -0.13950             -0.06501         *
 * Ni             34      0.02784             -0.09915             -0.01731         *
 * Ni             35     -0.10742              0.10391             -0.31073         *
 * Ni             36      0.08507              0.00640              0.17161         *
 * Ni             37     -0.18695              0.01873             -0.11893         *
 * Ni             38     -0.04738             -0.09876              0.03137         *
[...]
            Ni 72  -- Ni 73                  0.08        2.60519
            Ni 114 -- Ni 124                 0.04        2.60524
            Ni 85  -- Ni 89                  0.02        2.60528
            Ni 93  -- Ni 95                  0.04        2.60532
            Ni 32  -- Ni 43                  0.12        2.60543
             Al 18 -- Al 49                  0.25        2.60546
             Al 64 -- Ni 44                  0.15        2.60573
            Ni 24  -- Ni 25                  0.05        2.60576
            Ni 165 -- Ni 176                 0.08        2.60684
            Ni 27  -- Ni 170                 0.04        2.60695
            Ni 164 -- Ni 165                 0.02        2.60706
            Ni 108 -- Ni 109                 0.01        2.60748
             Al 23 -- Al 24                  0.24        2.60755
            Ni 21  -- Ni 23                  0.09        2.60777
            Ni 151 -- Ni 183                 0.07        2.60797
             Al 12 -- Ni 163                 0.16        2.60846
             Al 55 -- Ni 37                  0.17        2.60848
            Ni 63  -- Ni 64                  0.12        2.60851
            Ni 82  -- Ni 93                  0.04        2.60853
            Ni 45  -- Ni 46                  0.03        2.60855
             Al 21 -- Ni 151                 0.19        2.60887
            Ni 85  -- Ni 97                 -0.07        2.60920
            Ni 51  -- Ni 86                  0.08        2.60986
             Al 52 -- Ni 183                 0.17        2.60998
            Ni 87  -- Ni 140                -0.01        2.61045
             Al 17 -- Ni 189                 0.18        2.61046
            Ni 46  -- Ni 189                -0.03        2.61085
            Ni 90  -- Ni 92                  0.04        2.61095
             Al 24 -- Ni 143                 0.14        2.61116
            Ni 15  -- Ni 27                  0.05        2.61162
            Ni 73  -- Ni 113                 0.07        2.61174
            Ni 70  -- Ni 71                  0.02        2.61212
             Al 25 -- Ni 76                  0.16        2.61241
             Al 9  -- Al 56                  0.25        2.61242
            Ni 28  -- Ni 89                  0.08        2.61245
            Ni 74  -- Ni 75                  0.06        2.61247
             Al 4  -- Ni 27                  0.18        2.61252
             Al 39 -- Ni 74                  0.16        2.61290
            Ni 41  -- Ni 190                -0.06        2.61316
             Al 60 -- Ni 11                  0.18        2.61348
            Ni 68  -- Ni 71                  0.10        2.61381
            Ni 151 -- Ni 152                 0.02        2.61446
            Ni 108 -- Ni 110                -0.01        2.61460
            Ni 156 -- Ni 157                 0.01        2.61475
             Al 46 -- Ni 26                  0.19        2.61493
            Ni 174 -- Ni 181                 0.08        2.61495
            Ni 30  -- Ni 32                  0.07        2.61497
            Ni 111 -- Ni 112                 0.05        2.61502
            Ni 43  -- Ni 95                  0.05        2.61524
             Al 18 -- Ni 4                   0.15        2.61528
             Al 59 -- Ni 17                  0.17        2.61549
             Al 42 -- Ni 80                  0.17        2.61551
            Ni 159 -- Ni 168                 0.08        2.61582
            Ni 7   -- Ni 58                  0.03        2.61627
             Al 32 -- Ni 103                 0.16        2.61638
             Al 54 -- Ni 28                  0.12        2.61654
             Al 60 -- Ni 24                  0.18        2.61738
            Ni 41  -- Ni 181                 0.07        2.61758
            Ni 65  -- Ni 81                  0.10        2.61766
            Ni 183 -- Ni 186                 0.09        2.61780
             Al 49 -- Ni 190                 0.17        2.61782
            Ni 124 -- Ni 126                 0.04        2.61800
            Ni 109 -- Ni 153                 0.05        2.61829
             Al 50 -- Ni 47                  0.12        2.61856
            Ni 39  -- Ni 42                  0.08        2.61859
            Ni 165 -- Ni 167                 0.03        2.61863
            Ni 37  -- Ni 169                 0.05        2.61915
             Al 43 -- Ni 91                  0.16        2.61949
            Ni 26  -- Ni 75                  0.08        2.61982
             Al 54 -- Al 55                  0.29        2.62041
            Ni 189 -- Ni 192                 0.04        2.62042
            Ni 42  -- Ni 91                  0.11        2.62094
             Al 19 -- Ni 158                 0.16        2.62109
            Ni 33  -- Ni 174                 0.02        2.62112
            Ni 108 -- Ni 160                 0.03        2.62132
            Ni 17  -- Ni 22                  0.08        2.62204
            Ni 184 -- Ni 186                 0.08        2.62212
            Ni 13  -- Ni 170                 0.04        2.62213
             Al 60 -- Ni 26                  0.19        2.62217
             Al 57 -- Ni 35                  0.15        2.62257
            Ni 101 -- Ni 154                 0.06        2.62277
             Al 13 -- Ni 168                 0.17        2.62300
             Al 46 -- Ni 63                  0.19        2.62335
             Al 25 -- Ni 86                  0.17        2.62377
             Al 23 -- Ni 141                 0.15        2.62396
             Al 30 -- Ni 99                  0.15        2.62404
            Ni 32  -- Ni 174                 0.01        2.62406
            Ni 61  -- Ni 75                  0.11        2.62434
            Ni 187 -- Ni 188                -0.00        2.62461
             Al 34 -- Al 50                  0.24        2.62477
            Ni 121 -- Ni 135                -0.01        2.62489
            Ni 161 -- Ni 166                -0.01        2.62495
            Ni 159 -- Ni 170                 0.07        2.62513
            Ni 138 -- Ni 139                 0.01        2.62543
            Ni 63  -- Ni 73                  0.03        2.62584
             Al 47 -- Ni 75                  0.17        2.62601
            Ni 143 -- Ni 188                 0.06        2.62608
            Ni 184 -- Ni 185                 0.07        2.62610
             Al 54 -- Ni 36                  0.14        2.62629
            Ni 72  -- Ni 122                 0.07        2.62663
             Al 11 -- Ni 29                  0.18        2.62694
            Ni 126 -- Ni 142                 0.10        2.62743
            Ni 43  -- Ni 44                 -0.03        2.62746
             Al 20 -- Ni 10                  0.15        2.62764
            Ni 11  -- Ni 13                  0.09        2.62790
            Ni 27  -- Ni 37                  0.03        2.62846
            Ni 21  -- Ni 167                 0.02        2.62851
            Ni 84  -- Ni 85                 -0.05        2.62876
            Ni 158 -- Ni 185                -0.01        2.62942
             Al 40 -- Ni 97                  0.16        2.62977
            Ni 98  -- Ni 153                 0.02        2.63003
             Al 38 -- Al 55                  0.27        2.63051
            Ni 128 -- Ni 142                -0.00        2.63063
             Al 27 -- Ni 135                 0.16        2.63114
             Al 4  -- Al 12                  0.24        2.63128
             Al 23 -- Ni 142                 0.12        2.63150
            Ni 119 -- Ni 133                 0.03        2.63164
            Ni 73  -- Ni 75                  0.11        2.63174
             Al 48 -- Ni 177                 0.12        2.63174
             Al 54 -- Ni 177                 0.16        2.63188
             Al 44 -- Al 45                  0.24        2.63227
             Al 56 -- Ni 175                 0.18        2.63253
             Al 18 -- Al 22                  0.25        2.63265
            Ni 82  -- Ni 95                 -0.01        2.63267
            Ni 46  -- Ni 47                  0.07        2.63321
            Ni 124 -- Ni 173                 0.08        2.63343
            Ni 84  -- Ni 97                  0.04        2.63407
             Al 60 -- Ni 27                  0.18        2.63415
             Al 59 -- Ni 28                  0.17        2.63430
            Ni 34  -- Ni 43                  0.02        2.63451
             Al 32 -- Ni 107                 0.15        2.63482
            Ni 9   -- Ni 168                 0.04        2.63587
            Ni 35  -- Ni 45                 -0.07        2.63617
            Ni 77  -- Ni 125                -0.01        2.63649
             Al 8  -- Al 24                  0.23        2.63664
             Al 33 -- Ni 113                 0.14        2.63726
            Ni 121 -- Ni 171                -0.03        2.63754
             Al 7  -- Al 8                   0.20        2.63806
            Ni 123 -- Ni 173                 0.11        2.63845
             Al 59 -- Ni 29                  0.15        2.63886
            Ni 29  -- Ni 39                  0.09        2.63976
             Al 54 -- Al 58                  0.26        2.64002
             Al 26 -- Al 39                  0.24        2.64012
            Ni 131 -- Ni 134                 0.01        2.64018
            Ni 130 -- Ni 131                 0.07        2.64036
            Ni 181 -- Ni 182                 0.04        2.64047
             Al 14 -- Ni 168                 0.16        2.64088
             Al 37 -- Ni 53                  0.13        2.64131
            Ni 131 -- Ni 176                 0.05        2.64146
             Al 52 -- Ni 32                  0.19        2.64172
            Ni 26  -- Ni 27                  0.04        2.64235
            Ni 23  -- Ni 24                 -0.04        2.64282
             Al 9  -- Al 15                  0.24        2.64357
            Ni 24  -- Ni 175                 0.10        2.64370
            Ni 29  -- Ni 30                  0.07        2.64409
            Ni 175 -- Ni 176                -0.04        2.64501
            Ni 182 -- Ni 190                 0.06        2.64502
             Al 27 -- Al 28                  0.24        2.64511
            Ni 17  -- Ni 19                  0.07        2.64541
             Al 55 -- Al 57                  0.28        2.64575
            Ni 3   -- Ni 151                -0.02        2.64617
            Ni 31  -- Ni 83                  0.07        2.64685
            Ni 162 -- Ni 163                 0.06        2.64686
            Ni 132 -- Ni 137                 0.04        2.64792
             Al 5  -- Ni 175                 0.15        2.64793
            Ni 9   -- Ni 25                 -0.01        2.64817
             Al 51 -- Ni 32                  0.15        2.64855
            Ni 175 -- Ni 179                 0.02        2.64876
            Ni 6   -- Ni 20                  0.10        2.64969
             Al 3  -- Ni 183                 0.18        2.65010
             Al 22 -- Ni 160                 0.15        2.65084
             Al 4  -- Al 54                  0.28        2.65160
            Ni 132 -- Ni 133                 0.03        2.65226
            Ni 172 -- Ni 182                 0.05        2.65263
             Al 19 -- Ni 154                 0.14        2.65328
            Ni 185 -- Ni 187                 0.01        2.65337
            Ni 37  -- Ni 177                 0.03        2.65363
            Ni 119 -- Ni 137                 0.03        2.65515
            Ni 2   -- Ni 40                  0.04        2.65516
            Ni 84  -- Ni 136                 0.02        2.65543
            Ni 22  -- Ni 161                -0.01        2.65556
             Al 58 -- Al 59                  0.21        2.65622
             Al 50 -- Al 54                  0.29        2.65633
            Ni 34  -- Ni 95                  0.03        2.65656
             Al 1  -- Al 2                   0.27        2.65671
            Ni 169 -- Ni 179                -0.03        2.65678
             Al 19 -- Al 20                  0.22        2.65749
             Al 15 -- Ni 33                  0.15        2.65755
             Al 45 -- Ni 75                  0.15        2.65857
             Al 49 -- Ni 189                 0.15        2.65863
            Ni 164 -- Ni 166                 0.00        2.65867
            Ni 172 -- Ni 173                 0.05        2.65894
             Al 28 -- Al 33                  0.23        2.65907
            Ni 141 -- Ni 186                -0.01        2.65941
            Ni 34  -- Ni 45                 -0.01        2.65988
             Al 35 -- Ni 86                  0.14        2.66015
             Al 7  -- Al 10                  0.23        2.66043
             Al 59 -- Ni 15                  0.15        2.66102
            Ni 161 -- Ni 163                 0.04        2.66107
             Al 48 -- Al 55                  0.25        2.66134
            Ni 114 -- Ni 162                 0.03        2.66507
             Al 48 -- Al 54                  0.29        2.66565
            Ni 155 -- Ni 183                 0.04        2.66610
            Ni 24  -- Ni 167                 0.04        2.66643
             Al 52 -- Ni 184                 0.18        2.66687
             Al 52 -- Ni 42                  0.13        2.66737
            Ni 188 -- Ni 189                 0.04        2.66780
            Ni 26  -- Ni 74                  0.06        2.66890
            Ni 177 -- Ni 179                 0.05        2.66894
            Ni 111 -- Ni 162                 0.08        2.66898
             Al 23 -- Al 37                  0.23        2.66975
             Al 44 -- Al 57                  0.27        2.67019
            Ni 22  -- Ni 164                 0.02        2.67247
            Ni 18  -- Ni 170                -0.02        2.67345
            Ni 6   -- Ni 25                  0.04        2.67387
             Al 50 -- Al 55                  0.24        2.67401
             Al 27 -- Al 39                  0.23        2.67517
             Al 34 -- Ni 89                  0.11        2.67539
            Ni 27  -- Ni 36                  0.02        2.67558
             Al 34 -- Ni 97                  0.14        2.67609
             Al 1  -- Al 24                  0.21        2.67677
             Al 37 -- Ni 90                  0.13        2.67740
             Al 48 -- Al 49                  0.20        2.67867
             Al 64 -- Ni 42                  0.12        2.67971
             Al 20 -- Al 53                  0.23        2.68034
            Ni 29  -- Ni 181                 0.08        2.68075
             Al 7  -- Ni 174                 0.15        2.68235
             Al 6  -- Al 56                  0.20        2.68773
             Al 36 -- Al 37                  0.22        2.68820
            Ni 6   -- Ni 7                   0.09        2.68851
            Ni 13  -- Ni 159                 0.00        2.68902
             Al 6  -- Al 51                  0.21        2.68927
             Al 11 -- Al 54                  0.23        2.69212
             Al 40 -- Al 55                  0.20        2.69396
             Al 51 -- Ni 184                 0.13        2.69651
             Al 51 -- Ni 187                 0.11        2.69851
             Al 36 -- Al 64                  0.20        2.69960
             Al 38 -- Al 61                  0.20        2.70191
             Al 49 -- Al 50                  0.20        2.70343
             Al 44 -- Al 62                  0.21        2.70410
             Al 10 -- Al 11                  0.24        2.70413
             Al 47 -- Al 62                  0.19        2.70991
            Ni 29  -- Ni 174                 0.06        2.71109
             Al 6  -- Al 9                   0.18        2.71265
             Al 12 -- Al 16                  0.19        2.71410
             Al 17 -- Al 18                  0.20        2.71549
             Al 38 -- Al 57                  0.39        2.71652
             Al 6  -- Al 8                   0.19        2.72070
             Al 13 -- Al 19                  0.20        2.72165
             Al 29 -- Al 30                  0.20        2.72399
             Al 23 -- Al 32                  0.19        2.72616
             Al 53 -- Al 64                  0.20        2.72662
             Al 13 -- Al 14                  0.21        2.72874
             Al 8  -- Al 9                   0.18        2.72888
             Al 28 -- Ni 111                 0.10        2.72986
             Al 60 -- Al 61                  0.20        2.73037
             Al 52 -- Al 53                  0.20        2.73510
             Al 25 -- Al 35                  0.20        2.74015
             Al 38 -- Al 44                  0.24        2.74053
             Al 10 -- Al 15                  0.20        2.74113
             Al 10 -- Al 58                  0.21        2.74307
             Al 45 -- Al 47                  0.19        2.74354
             Al 5  -- Al 6                   0.21        2.74433
             Al 42 -- Al 43                  0.21        2.74449
             Al 2  -- Ni 35                  0.15        2.74548
             Al 30 -- Al 33                  0.19        2.74646
             Al 34 -- Al 35                  0.19        2.74671
             Al 41 -- Al 44                  0.19        2.75161
             Al 20 -- Al 21                  0.18        2.75364
             Al 21 -- Al 63                  0.18        2.75500
             Al 60 -- Al 62                  0.17        2.75514
             Al 1  -- Al 8                   0.18        2.75711
             Al 39 -- Ni 72                  0.09        2.75732
             Al 63 -- Al 64                  0.18        2.75936
             Al 57 -- Al 61                  0.17        2.76441
             Al 56 -- Ni 35                  0.11        2.76867
             Al 7  -- Al 9                   0.19        2.76917
             Al 10 -- Al 16                  0.16        2.77274
             Al 2  -- Al 6                   0.22        2.78223
             Al 53 -- Al 63                  0.17        2.78330
             Al 40 -- Al 41                  0.17        2.79184
             Al 16 -- Al 58                  0.17        2.79219
             Al 40 -- Al 57                  0.19        2.79267
             Al 2  -- Al 51                  0.15        2.80617
             Al 38 -- Al 41                  0.12        2.80821
             Al 26 -- Al 27                  0.15        2.81877
             Al 61 -- Al 62                  0.15        2.82504
             Al 38 -- Al 40                  0.17        2.83028
             Al 2  -- Al 5                   0.16        2.83220
             Al 48 -- Al 50                  0.18        2.84868
             Al 1  -- Al 6                   0.17        2.86353
             Al 20 -- Al 63                  0.14        2.86401
             Al 4  -- Al 11                  0.17        2.86596
             Al 4  -- Al 58                  0.20        2.86736
             Al 1  -- Al 5                   0.12        2.86996
             Al 4  -- Al 16                  0.15        2.87024
             Al 44 -- Al 61                  0.08        2.93535
             Al 7  -- Al 15                  0.09        2.94707
======================================================================
 

Writing analysis data to castep.castep_bin

Writing model to castep.check
 
 A BibTeX formatted list of references used in this run has been written to 
 castep.bib
 
Initialisation time =     13.60 s
Calculation time    =  29935.18 s
Finalisation time   =      3.08 s
Total time          =  29951.86 s
Peak Memory Use     = 8255840 kB
  
Overall parallel efficiency rating: Good (78%)                                  
  
Data was distributed by:-
G-vector (48-way); efficiency rating: Good (79%)                                
