 +-------------------------------------------------+
 |                                                 |
 |      CCC   AA    SSS  TTTTT  EEEEE  PPPP        |
 |     C     A  A  S       T    E      P   P       |
 |     C     AAAA   SS     T    EEE    PPPP        |
 |     C     A  A     S    T    E      P           |
 |      CCC  A  A  SSS     T    EEEEE  P           |
 |                                                 |
 +-------------------------------------------------+
 |                                                 |
 | Welcome to Academic Release CASTEP version 20.11|          
 | Ab Initio Total Energy Program                  |
 |                                                 |
 | Authors:                                        |
 | M. Segall, M. Probert, C. Pickard, P. Hasnip,   |
 | S. Clark, K. Refson, J. R. Yates, M. Payne      |
 |                                                 |
 | Contributors:                                   |
 | P. Lindan, P. Haynes, J. White, V. Milman,      |
 | N. Govind, M. Gibson, P. Tulip, V. Cocula,      |
 | B. Montanari, D. Quigley, M. Glover,            |
 | L. Bernasconi, A. Perlov, M. Plummer,           |
 | E. McNellis, J. Meyer, J. Gale, D. Jochym       |
 | J. Aarons, B. Walker, R. Gillen, D. Jones       |
 | T. Green, I. J. Bush, C. J. Armstrong,          |
 | E. J. Higgins, E. L. Brown, M. S. McFly,        |
 | J. Wilkins, B-C. Shih, P. J. P. Byrne,          |
 | R. J. Maurer, J. C. Womack, J. Dziedzic,        |
 | J. R. Kermode, A. Bartok-Partay                 |
 |                                                 |
 | Copyright (c) 2000 - 2020                       |
 |                                                 |
 |     Distributed under license from Cambridge    |
 |     Enterprise for academic use only.           |
 |                                                 |
 | Please cite                                     |
 |                                                 |
 |     "First principles methods using CASTEP"     |
 |                                                 |
 |         Zeitschrift fuer Kristallographie       |
 |           220(5-6) pp. 567-570 (2005)           |
 |                                                 |
 | S. J. Clark, M. D. Segall, C. J. Pickard,       |
 | P. J. Hasnip, M. J. Probert, K. Refson,         |
 | M. C. Payne                                     |
 |                                                 |
 |       in all publications arising from          |
 |              your use of CASTEP                 |
 |                                                 |
 +-------------------------------------------------+
 |                                                 |
 |              http://www.castep.org              |
 |                                                 |
 +-------------------------------------------------+
 
 
 
 Compiled for linux_x86_64_ifort on Wed, 25 Aug 2021 18:50:38 +0100
 from code version e772bf432+  HEAD  Sat Apr 3 17:41:32 2021 +0100
 Compiler: Intel Fortran 19.0.5.281; Optimisation: fast
 MATHLIBS: Intel MKL(2019.0.5) (LAPACK version 3.7.0)
 FFT Lib : mkl
 Fundamental constants values: CODATA 2014
 
 Run started: Wed, 08 Mar 2023 10:11:48 +0000
 
 Atomic calculation performed for Al: 1s2 2s2 2p6 3s2 3p1
 
 Converged in 52 iterations to an ae energy of -6606.982 eV
 
   ============================================================                
   | Pseudopotential Report - Date of generation  8-03-2023   |                
   ------------------------------------------------------------                
   | Element: Al Ionic charge:  3.00 Level of theory: RPBE    |                
   | Atomic Solver: Koelling-Harmon                           |                
   |                                                          |                
   |               Reference Electronic Structure             |                
   |         Orbital         Occupation         Energy        |                
   |            3s              2.000           -0.284        |                
   |            3p              1.000           -0.100        |                
   |                                                          |                
   |                 Pseudopotential Definition               |                
   |        Beta     l      e      Rc     scheme   norm       |                
   |          1      0   -0.284   2.192     qc      0         |                
   |          2      0    0.250   2.192     qc      0         |                
   |          3      1   -0.100   2.192     qc      0         |                
   |          4      1    0.250   2.192     qc      0         |                
   |          5      2    0.000   2.000     qc      0         |                
   |          6      2    0.250   2.000     qc      0         |                
   |         loc     3    0.000   2.192     pn      0         |                
   |                                                          |                
   | Augmentation charge Rinner = 1.398                       |                
   | Partial core correction Rc = 1.398                       |                
   ------------------------------------------------------------                
   | "3|2.2|2.2|1.4|4|5|5|30:31:32U2U2"                       |                
   ------------------------------------------------------------                
   |      Author: Chris J. Pickard, Cambridge University      |                
   ============================================================                
 
 Atomic calculation performed for Ni: 1s2 2s2 2p6 3s2 3p6 3d8 4s2
 
 Converged in 109 iterations to an ae energy of -41381.414 eV
 
   ============================================================                
   | Pseudopotential Report - Date of generation  8-03-2023   |                
   ------------------------------------------------------------                
   | Element: Ni Ionic charge: 10.00 Level of theory: RPBE    |                
   | Atomic Solver: Koelling-Harmon                           |                
   |                                                          |                
   |               Reference Electronic Structure             |                
   |         Orbital         Occupation         Energy        |                
   |            3d              8.000           -0.324        |                
   |            4s              2.000           -0.204        |                
   |                                                          |                
   |                 Pseudopotential Definition               |                
   |        Beta     l      e      Rc     scheme   norm       |                
   |          1      0   -0.204   2.401     qc      0         |                
   |          2      0    0.250   2.401     qc      0         |                
   |          3      1    0.000   2.401     qc      0         |                
   |          4      1    0.250   2.401     qc      0         |                
   |          5      2   -0.324   1.999     qc      0         |                
   |          6      2    0.250   1.999     qc      0         |                
   |         loc     3    0.000   2.401     pn      0         |                
   |                                                          |                
   | Augmentation charge Rinner = 1.001                       |                
   | Partial core correction Rc = 1.001                       |                
   ------------------------------------------------------------                
   | "3|2.4|2.4|1.0|8|9|10|40:41:32U2U2(qc=5.5)"              |                
   ------------------------------------------------------------                
   |      Author: Chris J. Pickard, Cambridge University      |                
   ============================================================                
 
 Pseudo atomic calculation performed for Al 3s2 3p1
 
 Converged in 13 iterations to a total energy of -107.6592 eV
 
 Pseudo atomic calculation performed for Ni 3d8 4s2
 
 Converged in 41 iterations to a total energy of -1369.7891 eV
 Calculation parallelised over 48 processes.
 Data is distributed by G-vector(48-way)

 ************************************ Title ************************************
 

 ***************************** General Parameters ******************************
  
 output verbosity                               : normal  (1)
 write checkpoint data to                       : castep.check
 type of calculation                            : geometry optimization
 stress calculation                             : off
 density difference calculation                 : off
 electron localisation func (ELF) calculation   : off
 Hirshfeld analysis                             : off
 molecular orbital projected DOS                : off
 deltaSCF calculation                           : off
 unlimited duration calculation
 timing information                             : on
 memory usage estimate                          : on
 write extra output files                       : on
 write final potential to formatted file        : off
 write final density to formatted file          : off
 write BibTeX reference list                    : on
 write OTFG pseudopotential files               : on
 write electrostatic potential file             : on
 write bands file                               : on
 checkpoint writing                             : both castep_bin and check files
  
 output         length unit                     : A
 output           mass unit                     : amu
 output           time unit                     : ps
 output         charge unit                     : e
 output           spin unit                     : hbar/2
 output         energy unit                     : eV
 output          force unit                     : eV/A
 output       velocity unit                     : A/ps
 output       pressure unit                     : GPa
 output     inv_length unit                     : 1/A
 output      frequency unit                     : cm-1
 output force constant unit                     : eV/A**2
 output         volume unit                     : A**3
 output   IR intensity unit                     : (D/A)**2/amu
 output         dipole unit                     : D
 output         efield unit                     : eV/A/e
 output        entropy unit                     : J/mol/K
 output    efield chi2 unit                     : pm/V
  
 wavefunctions paging                           : none
 random number generator seed                   : randomised (101148284)
 data distribution                              : optimal for this architecture
 optimization strategy                          : maximize speed(+++)

 *********************** Exchange-Correlation Parameters ***********************
  
 using functional                               : revised Perdew Burke Ernzerhof
 relativistic treatment                         : Koelling-Harmon
 DFT+D: Semi-empirical dispersion correction    : off

 ************************* Pseudopotential Parameters **************************
  
 pseudopotential representation                 : reciprocal space
 <beta|phi> representation                      : reciprocal space
 spin-orbit coupling                            : off

 **************************** Basis Set Parameters *****************************
  
 plane wave basis set cut-off                   :   900.0000   eV
 size of standard grid                          :     1.7500
 size of   fine   gmax                          :    26.8966   1/A
 finite basis set correction                    : none

 **************************** Electronic Parameters ****************************
  
 number of  electrons                           :  2109.    
 net charge of system                           :  0.000    
 net spin   of system                           :  1.000    
 number of  up  spins                           :  1055.    
 number of down spins                           :  1054.    
 treating system as spin-polarized
 number of bands                                :       1167

 ********************* Electronic Minimization Parameters **********************
  
 Method: Treating system as metallic with density mixing treatment of electrons,
         and number of  SD  steps               :          1
         and number of  CG  steps               :          4
  
 total energy / atom convergence tol.           : 0.1000E-05   eV
 eigen-energy convergence tolerance             : 0.2185E-06   eV
 max force / atom convergence tol.              : ignored
 convergence tolerance window                   :          3   cycles
 max. number of SCF cycles                      :        200
 number of fixed-spin iterations                :         10
 smearing scheme                                : Gaussian
 smearing width                                 : 0.2000       eV
 Fermi energy convergence tolerance             : 0.2721E-13   eV
 periodic dipole correction                     : NONE
 periodically dump wavefunctions to             : castep.wvfn
 dump wavefunctions every                       :          1   SCF cycles

 ************************** Density Mixing Parameters **************************
  
 density-mixing scheme                          : Pulay
 max. length of mixing history                  :         20
 charge density mixing amplitude                : 0.8000    
   spin density mixing amplitude                :  2.000    
 cut-off energy for mixing                      :  900.0       eV

 *********************** Population Analysis Parameters ************************
  
 Population analysis with cutoff                :  3.000       A
 Population analysis output                     : summary and pdos components

 ********************** Geometry Optimization Parameters ***********************
  
 optimization method                            : LBFGS
 max. no. of LBFGS updates                      : unbounded
 variable cell method                           : fixed basis quality
 max. number of steps                           :         30
 estimated bulk modulus                         :  500.0       GPa
 estimated <frequency>                          :  1668.       cm-1
 geom line minimiser                            : on
 with line minimiser tolerance                  :     0.4000
  with spin fully able to relax for all steps
 total energy convergence tolerance             : 0.2000E-04   eV/atom
        max ionic |force| tolerance             : 0.5000E-01   eV/A
 max ionic |displacement| tolerance             : 0.1000E-02   A
   max |stress component| tolerance             : 0.1000       GPa
 convergence tolerance window                   :          2   steps
 backup results every                           :          5   steps
 write geom trajectory file                     : on

 *******************************************************************************
  
 
                           -------------------------------
                                      Unit Cell
                           -------------------------------
        Real Lattice(A)                      Reciprocal Lattice(1/A)
    14.4648280     0.0000000     0.0000000        0.434376773   0.000000000   0.000000000
     0.0000000    14.4648280     0.0000000        0.000000000   0.434376773   0.000000000
     0.0000000     0.0000000    14.4648280        0.000000000   0.000000000   0.434376773
 
                       Lattice parameters(A)       Cell Angles
                    a =     14.464828          alpha =   90.000000
                    b =     14.464828          beta  =   90.000000
                    c =     14.464828          gamma =   90.000000
 
                       Current cell volume =          3026.494030       A**3
                                   density =             4.285146   AMU/A**3
                                           =             7.115653     g/cm^3
 
                           -------------------------------
                                     Cell Contents
                           -------------------------------
                         Total number of ions in cell =  255
                      Total number of species in cell =    2
                        Max number of any one species =  192
 
            xxxxxxxxxxxxxxxxxxxxxxxxxxxxxxxxxxxxxxxxxxxxxxxxxxxxxxxxxxxx
            x  Element    Atom        Fractional coordinates of atoms  x
            x            Number           u          v          w      x
            x----------------------------------------------------------x
            x  Al           1         0.570165   0.307962   0.813366   x 
            x  Al           2         0.818158   0.308838   0.812797   x 
            x  Al           3         0.568926   0.558643   0.814280   x 
            x  Al           4         0.817600   0.558359   0.813252   x 
            x  Al           5         0.573863   0.808653   0.809637   x 
            x  Al           6         0.818466   0.807842   0.812489   x 
            x  Al           7         0.571110   0.058592   0.813082   x 
            x  Al           8         0.819221   0.058767   0.812180   x 
            x  Al           9         0.569366   0.306759   0.063293   x 
            x  Al          10         0.818559   0.308150   0.062625   x 
            x  Al          11         0.573475   0.554012   0.062727   x 
            x  Al          12         0.817519   0.558341   0.062536   x 
            x  Al          13         0.576315   0.813447   0.063045   x 
            x  Al          14         0.818934   0.808628   0.062390   x 
            x  Al          15         0.573145   0.057793   0.059272   x 
            x  Al          16         0.819599   0.058544   0.062292   x 
            x  Al          17         0.576440   0.302574   0.312557   x 
            x  Al          18         0.818826   0.308566   0.312801   x 
            x  Al          19         0.574799   0.563911   0.311364   x 
            x  Al          20         0.817840   0.558903   0.312570   x 
            x  Al          21         0.574770   0.808844   0.315607   x 
            x  Al          22         0.819371   0.808401   0.313245   x 
            x  Al          23         0.576808   0.058111   0.318782   x 
            x  Al          24         0.820267   0.057896   0.313462   x 
            x  Al          25         0.572462   0.308667   0.562843   x 
            x  Al          26         0.818512   0.309330   0.563668   x 
            x  Al          27         0.569848   0.558458   0.563464   x 
            x  Al          28         0.817984   0.558411   0.563427   x 
            x  Al          29         0.570186   0.808043   0.563590   x 
            x  Al          30         0.819437   0.807703   0.563710   x 
            x  Al          31         0.571950   0.058080   0.562378   x 
            x  Al          32         0.820114   0.058435   0.564100   x 
            x  Al          33         0.328701   0.182951   0.683339   x 
            x  Al          34         0.056033   0.057403   0.557738   x 
            x  Al          35         0.192366   0.189958   0.555135   x 
            x  Al          36         0.321852   0.935121   0.688744   x 
            x  Al          37         0.192764   0.929532   0.554333   x 
            x  Al          38         0.318452   0.687130   0.690376   x 
            x  Al          39         0.074756   0.687482   0.678521   x 
            x  Al          40         0.197821   0.188997   0.322416   x 
            x  Al          41         0.066574   0.805920   0.315288   x 
            x  Al          42         0.325083   0.685478   0.437987   x 
            x  Al          43         0.192414   0.667407   0.313604   x 
            x  Al          44         0.440177   0.432771   0.320635   x 
            x  Al          45         0.327978   0.548904   0.560960   x 
            x  Al          46         0.192968   0.432811   0.311273   x 
            x  Al          47         0.061132   0.434664   0.438577   x 
            x  Al          48         0.317625   0.061437   0.062209   x 
            x  Al          49         0.439664   0.058139   0.195424   x 
            x  Al          50         0.186490   0.054645   0.934764   x 
            x  Al          51         0.067872   0.184804   0.191154   x 
            x  Al          52         0.433089   0.813799   0.189973   x 
            x  Al          53         0.071073   0.945355   0.191602   x 
            x  Al          54         0.201143   0.808217   0.181975   x 
            x  Al          55         0.431679   0.675104   0.062462   x 
            x  Al          56         0.322502   0.430438   0.180623   x 
            x  Al          57         0.183785   0.424925   0.060326   x 
            x  Al          58         0.187156   0.186067   0.806468   x 
            x  Al          59         0.433630   0.814921   0.935611   x 
            x  Al          60         0.192347   0.810970   0.937110   x 
            x  Al          61         0.191343   0.426206   0.804255   x 
            x  Al          62         0.192463   0.426338   0.568919   x 
            x  Al          63         0.187818   0.565385   0.933126   x 
            x  Ni           1         0.567693   0.431642   0.937501   x 
            x  Ni           2         0.693805   0.307874   0.938009   x 
            x  Ni           3         0.693253   0.433456   0.813343   x 
            x  Ni           4         0.817639   0.433521   0.937990   x 
            x  Ni           5         0.942571   0.308956   0.937608   x 
            x  Ni           6         0.942452   0.433916   0.812897   x 
            x  Ni           7         0.563396   0.686716   0.941301   x 
            x  Ni           8         0.692507   0.558769   0.937908   x 
            x  Ni           9         0.692599   0.682740   0.813812   x 
            x  Ni          10         0.818285   0.683200   0.937715   x 
            x  Ni          11         0.942304   0.558461   0.937782   x 
            x  Ni          12         0.942762   0.683029   0.812821   x 
            x  Ni          13         0.567937   0.932200   0.935863   x 
            x  Ni          14         0.694590   0.808563   0.936867   x 
            x  Ni          15         0.695042   0.933890   0.811873   x 
            x  Ni          16         0.819423   0.933438   0.936903   x 
            x  Ni          17         0.942851   0.808025   0.937373   x 
            x  Ni          18         0.943307   0.933027   0.812432   x 
            x  Ni          19         0.568206   0.183354   0.937546   x 
            x  Ni          20         0.695015   0.058281   0.936480   x 
            x  Ni          21         0.693967   0.183602   0.812475   x 
            x  Ni          22         0.818849   0.183573   0.937304   x 
            x  Ni          23         0.943242   0.058502   0.937219   x 
            x  Ni          24         0.943159   0.184016   0.812611   x 
            x  Ni          25         0.566398   0.431984   0.191490   x 
            x  Ni          26         0.694244   0.306851   0.187139   x 
            x  Ni          27         0.693244   0.431710   0.063584   x 
            x  Ni          28         0.818190   0.433424   0.187572   x 
            x  Ni          29         0.942586   0.308806   0.187871   x 
            x  Ni          30         0.942194   0.433821   0.062729   x 
            x  Ni          31         0.563852   0.687251   0.183510   x 
            x  Ni          32         0.693661   0.559245   0.187098   x 
            x  Ni          33         0.693525   0.683798   0.062490   x 
            x  Ni          34         0.818675   0.683869   0.187243   x 
            x  Ni          35         0.942102   0.558673   0.187750   x 
            x  Ni          36         0.942655   0.683308   0.062576   x 
            x  Ni          37         0.567464   0.935054   0.190049   x 
            x  Ni          38         0.694697   0.809632   0.188117   x 
            x  Ni          39         0.696238   0.934790   0.062403   x 
            x  Ni          40         0.819961   0.933529   0.187928   x 
            x  Ni          41         0.943125   0.808217   0.187780   x 
            x  Ni          42         0.943223   0.933204   0.062412   x 
            x  Ni          43         0.568358   0.179105   0.188232   x 
            x  Ni          44         0.694934   0.057576   0.188039   x 
            x  Ni          45         0.694587   0.182780   0.062520   x 
            x  Ni          46         0.819546   0.182863   0.187413   x 
            x  Ni          47         0.943744   0.058294   0.187847   x 
            x  Ni          48         0.943121   0.183617   0.062466   x 
            x  Ni          49         0.570536   0.433616   0.434676   x 
            x  Ni          50         0.695962   0.308341   0.438599   x 
            x  Ni          51         0.694485   0.433446   0.312152   x 
            x  Ni          52         0.818254   0.434114   0.438090   x 
            x  Ni          53         0.942807   0.309302   0.438181   x 
            x  Ni          54         0.942308   0.434061   0.312950   x 
            x  Ni          55         0.568360   0.684425   0.439165   x 
            x  Ni          56         0.694119   0.559274   0.438197   x 
            x  Ni          57         0.694816   0.684823   0.312026   x 
            x  Ni          58         0.818753   0.683284   0.438331   x 
            x  Ni          59         0.942465   0.558667   0.437988   x 
            x  Ni          60         0.942525   0.683304   0.312971   x 
            x  Ni          61         0.570269   0.932666   0.439859   x 
            x  Ni          62         0.695639   0.808138   0.439702   x 
            x  Ni          63         0.696701   0.933255   0.314110   x 
            x  Ni          64         0.820289   0.932830   0.439122   x 
            x  Ni          65         0.943444   0.807834   0.438347   x 
            x  Ni          66         0.943713   0.933023   0.313317   x 
            x  Ni          67         0.571329   0.182748   0.439414   x 
            x  Ni          68         0.697526   0.057898   0.440300   x 
            x  Ni          69         0.697714   0.182011   0.313384   x 
            x  Ni          70         0.820139   0.183625   0.439091   x 
            x  Ni          71         0.943852   0.058307   0.438551   x 
            x  Ni          72         0.942916   0.183669   0.313151   x 
            x  Ni          73         0.567702   0.433826   0.689174   x 
            x  Ni          74         0.693431   0.308764   0.688346   x 
            x  Ni          75         0.692955   0.434184   0.562987   x 
            x  Ni          76         0.817838   0.433901   0.688190   x 
            x  Ni          77         0.943012   0.309296   0.687960   x 
            x  Ni          78         0.942715   0.434110   0.563075   x 
            x  Ni          79         0.567354   0.683276   0.687795   x 
            x  Ni          80         0.692828   0.558407   0.688676   x 
            x  Ni          81         0.693923   0.682961   0.563602   x 
            x  Ni          82         0.818200   0.682695   0.688488   x 
            x  Ni          83         0.942688   0.558462   0.688138   x 
            x  Ni          84         0.942982   0.682928   0.563272   x 
            x  Ni          85         0.568574   0.933869   0.686940   x 
            x  Ni          86         0.694810   0.807945   0.687324   x 
            x  Ni          87         0.695434   0.932957   0.563900   x 
            x  Ni          88         0.819489   0.933275   0.687983   x 
            x  Ni          89         0.943158   0.807757   0.688108   x 
            x  Ni          90         0.943967   0.932925   0.563420   x 
            x  Ni          91         0.568199   0.182786   0.687483   x 
            x  Ni          92         0.694405   0.058612   0.687774   x 
            x  Ni          93         0.695286   0.183589   0.564003   x 
            x  Ni          94         0.819107   0.183986   0.688175   x 
            x  Ni          95         0.943851   0.058534   0.687961   x 
            x  Ni          96         0.943665   0.184134   0.563360   x 
            x  Ni          97         0.069968   0.430620   0.932042   x 
            x  Ni          98         0.190718   0.305579   0.933343   x 
            x  Ni          99         0.064022   0.305203   0.807706   x 
            x  Ni         100         0.311458   0.432021   0.935317   x 
            x  Ni         101         0.442510   0.306625   0.937873   x 
            x  Ni         102         0.316696   0.557130   0.811306   x 
            x  Ni         103         0.319841   0.304906   0.810755   x 
            x  Ni         104         0.065425   0.560764   0.805152   x 
            x  Ni         105         0.065386   0.687604   0.935857   x 
            x  Ni         106         0.314833   0.683882   0.933951   x 
            x  Ni         107         0.441832   0.557577   0.937058   x 
            x  Ni         108         0.443682   0.685048   0.814448   x 
            x  Ni         109         0.190669   0.685853   0.809489   x 
            x  Ni         110         0.066585   0.934085   0.935392   x 
            x  Ni         111         0.316853   0.811422   0.811309   x 
            x  Ni         112         0.190701   0.935956   0.807406   x 
            x  Ni         113         0.314083   0.938293   0.935122   x 
            x  Ni         114         0.318266   0.810100   0.060508   x 
            x  Ni         115         0.444329   0.935226   0.812055   x 
            x  Ni         116         0.065346   0.180457   0.933373   x 
            x  Ni         117         0.315995   0.061822   0.809337   x 
            x  Ni         118         0.066964   0.057832   0.805616   x 
            x  Ni         119         0.314513   0.180362   0.935267   x 
            x  Ni         120         0.442811   0.057728   0.937801   x 
            x  Ni         121         0.444790   0.182691   0.813003   x 
            x  Ni         122         0.193257   0.060803   0.678073   x 
            x  Ni         123         0.064912   0.430346   0.188554   x 
            x  Ni         124         0.192256   0.307297   0.188937   x 
            x  Ni         125         0.062611   0.303416   0.061196   x 
            x  Ni         126         0.445835   0.307192   0.189165   x 
            x  Ni         127         0.443585   0.432730   0.060630   x 
            x  Ni         128         0.318597   0.306208   0.060627   x 
            x  Ni         129         0.070869   0.683793   0.190007   x 
            x  Ni         130         0.191100   0.552053   0.184191   x 
            x  Ni         131         0.191460   0.682908   0.061232   x 
            x  Ni         132         0.065683   0.558116   0.060663   x 
            x  Ni         133         0.315275   0.678438   0.189135   x 
            x  Ni         134         0.444076   0.556190   0.187505   x 
            x  Ni         135         0.312487   0.552958   0.058699   x 
            x  Ni         136         0.067151   0.060453   0.062993   x 
            x  Ni         137         0.070379   0.813891   0.066178   x 
            x  Ni         138         0.314921   0.937836   0.189927   x 
            x  Ni         139         0.443416   0.936196   0.064165   x 
            x  Ni         140         0.191761   0.937522   0.063074   x 
            x  Ni         141         0.194937   0.064506   0.190960   x 
            x  Ni         142         0.190524   0.184170   0.060729   x 
            x  Ni         143         0.317381   0.185287   0.190292   x 
            x  Ni         144         0.443220   0.180714   0.064007   x 
            x  Ni         145         0.063977   0.309096   0.314687   x 
            x  Ni         146         0.448372   0.307956   0.436684   x 
            x  Ni         147         0.320614   0.313382   0.315286   x 
            x  Ni         148         0.065532   0.678976   0.438556   x 
            x  Ni         149         0.062804   0.555648   0.314297   x 
            x  Ni         150         0.196114   0.548303   0.442192   x 
            x  Ni         151         0.447115   0.558773   0.436556   x 
            x  Ni         152         0.444517   0.683836   0.310284   x 
            x  Ni         153         0.320152   0.552064   0.315739   x 
            x  Ni         154         0.064842   0.931864   0.436051   x 
            x  Ni         155         0.192730   0.802560   0.433874   x 
            x  Ni         156         0.191448   0.933203   0.314855   x 
            x  Ni         157         0.318150   0.931745   0.437800   x 
            x  Ni         158         0.445809   0.808991   0.435824   x 
            x  Ni         159         0.444086   0.933477   0.314758   x 
            x  Ni         160         0.315631   0.805676   0.313251   x 
            x  Ni         161         0.064625   0.185706   0.436747   x 
            x  Ni         162         0.191079   0.059427   0.440862   x 
            x  Ni         163         0.068285   0.062338   0.315716   x 
            x  Ni         164         0.320141   0.185929   0.440188   x 
            x  Ni         165         0.446108   0.057894   0.436654   x 
            x  Ni         166         0.444542   0.183671   0.314788   x 
            x  Ni         167         0.317735   0.060088   0.317553   x 
            x  Ni         168         0.065880   0.431210   0.683986   x 
            x  Ni         169         0.194439   0.302891   0.684265   x 
            x  Ni         170         0.193238   0.317160   0.438135   x 
            x  Ni         171         0.062223   0.308172   0.558788   x 
            x  Ni         172         0.320353   0.431496   0.687067   x 
            x  Ni         173         0.447435   0.308444   0.687641   x 
            x  Ni         174         0.447585   0.431668   0.559801   x 
            x  Ni         175         0.323199   0.311835   0.559978   x 
            x  Ni         176         0.067744   0.810678   0.807651   x 
            x  Ni         177         0.194697   0.557598   0.685231   x 
            x  Ni         178         0.199445   0.679703   0.559275   x 
            x  Ni         179         0.064573   0.557368   0.562246   x 
            x  Ni         180         0.442096   0.432054   0.814607   x 
            x  Ni         181         0.442902   0.682962   0.564080   x 
            x  Ni         182         0.443846   0.558651   0.690181   x 
            x  Ni         183         0.068438   0.932121   0.679954   x 
            x  Ni         184         0.195382   0.810887   0.683547   x 
            x  Ni         185         0.066479   0.807215   0.557483   x 
            x  Ni         186         0.444374   0.809357   0.689184   x 
            x  Ni         187         0.444616   0.933714   0.561952   x 
            x  Ni         188         0.321194   0.809200   0.561994   x 
            x  Ni         189         0.066064   0.182415   0.680188   x 
            x  Ni         190         0.320410   0.057931   0.560649   x 
            x  Ni         191         0.446110   0.057813   0.687081   x 
            x  Ni         192         0.446529   0.183622   0.560599   x 
            xxxxxxxxxxxxxxxxxxxxxxxxxxxxxxxxxxxxxxxxxxxxxxxxxxxxxxxxxxxx
 
 
                         No user defined ionic velocities
 
                           -------------------------------
                                   Details of Species
                           -------------------------------
 
                               Mass of species in AMU
                                    Al   26.9815400
                                    Ni   58.6934000
 
                          Electric Quadrupole Moment (Barn)
                                    Al    0.1466000 Isotope 27
                                    Ni    0.1620000 Isotope 61
 
                          Files used for pseudopotentials:
                                    Al 3|2.2|2.2|1.4|4|5|5|30:31:32U2U2
                                    Ni 3|2.4|2.4|1.0|8|9|10|40:41:32U2U2(qc=5.5)
 
                           -------------------------------
                              k-Points For BZ Sampling
                           -------------------------------
                       MP grid size for SCF calculation is  1  1  1
                            with an offset of   0.000  0.000  0.000
                       Number of kpoints used =             1
 
                           -------------------------------
                               Symmetry and Constraints
                           -------------------------------
 
                      Maximum deviation from symmetry =  0.00000         ANG
 
                      Number of symmetry operations   =           1
                      Number of ionic constraints     =           3
                      Point group of crystal =     1: C1, 1, 1
                      Space group of crystal =     1: P1, P 1
 
             Set iprint > 1 for details on symmetry rotations/translations
 
                         Centre of mass is constrained
             Set iprint > 1 for details of linear ionic constraints
 
                         Number of cell constraints= 6
                         Cell constraints are:  0 0 0 0 0 0
 
                         External pressure/stress (GPa)
                          0.00000   0.00000   0.00000
                                    0.00000   0.00000
                                              0.00000
  
+---------------- MEMORY AND SCRATCH DISK ESTIMATES PER PROCESS --------------+
|                                                     Memory          Disk    |
| Baseline code, static data and system overhead      622.0 MB         0.0 MB |
| BLAS internal memory storage                          0.0 MB         0.0 MB |
| Model and support data                              741.5 MB         0.0 MB |
| Electronic energy minimisation requirements         236.0 MB         0.0 MB |
| Force calculation requirements                        7.9 MB         0.0 MB |
|                                               ----------------------------- |
| Approx. total storage required per process         1599.5 MB         0.0 MB |
|                                                                             |
| Requirements will fluctuate during execution and may exceed these estimates |
+-----------------------------------------------------------------------------+
Calculating total energy with cut-off of  900.000 eV.
------------------------------------------------------------------------ <-- SCF
SCF loop      Energy           Fermi           Energy gain       Timer   <-- SCF
                               energy          per atom          (sec)   <-- SCF
------------------------------------------------------------------------ <-- SCF
Initial  -2.19122466E+005  0.00000000E+000                        20.58  <-- SCF
      1  -2.63692282E+005  7.11284611E+000   1.74783589E+002     106.38  <-- SCF
      2  -2.70651622E+005  3.63758005E+000   2.72915303E+001     190.24  <-- SCF
      3  -2.71370651E+005  3.53230598E+000   2.81972308E+000     273.79  <-- SCF
      4  -2.71425991E+005  3.65404406E+000   2.17020601E-001     350.62  <-- SCF
      5  -2.71708393E+005  6.61655450E+000   1.10745795E+000     450.76  <-- SCF
      6  -2.71510395E+005  5.54505708E+000  -7.76465173E-001     562.15  <-- SCF
      7  -2.71401476E+005  4.53046266E+000  -4.27130248E-001     661.09  <-- SCF
      8  -2.71386075E+005  4.41254729E+000  -6.03973293E-002     764.51  <-- SCF
      9  -2.71398600E+005  4.49241878E+000   4.91157460E-002     858.46  <-- SCF
     10  -2.71393805E+005  4.43015678E+000  -1.88038402E-002     961.18  <-- SCF
     11  -2.72209471E+005  6.17613954E+000   3.19869298E+000    1061.60  <-- SCF
     12  -2.72221830E+005  6.13137134E+000   4.84648545E-002    1150.41  <-- SCF
     13  -2.71472940E+005  4.78033438E+000  -2.93682192E+000    1280.44  <-- SCF
     14  -2.71535935E+005  4.78265842E+000   2.47039374E-001    1368.10  <-- SCF
     15  -2.71414085E+005  4.28420054E+000  -4.77845968E-001    1471.72  <-- SCF
     16  -2.71391794E+005  4.23101575E+000  -8.74149656E-002    1572.45  <-- SCF
     17  -2.71388933E+005  4.29659255E+000  -1.12182622E-002    1666.43  <-- SCF
     18  -2.71387183E+005  4.35656145E+000  -6.86147445E-003    1762.26  <-- SCF
     19  -2.71385946E+005  4.37160534E+000  -4.85352045E-003    1856.53  <-- SCF
     20  -2.71385385E+005  4.36303306E+000  -2.19909575E-003    1950.47  <-- SCF
     21  -2.71385203E+005  4.35325966E+000  -7.12719256E-004    2047.45  <-- SCF
     22  -2.71385127E+005  4.35123670E+000  -3.00414310E-004    2143.14  <-- SCF
     23  -2.71385029E+005  4.35869781E+000  -3.81444876E-004    2239.60  <-- SCF
     24  -2.71384976E+005  4.36306067E+000  -2.11232254E-004    2331.56  <-- SCF
     25  -2.71384931E+005  4.36669733E+000  -1.76424529E-004    2425.42  <-- SCF
     26  -2.71384824E+005  4.37207167E+000  -4.18163161E-004    2518.60  <-- SCF
     27  -2.71384804E+005  4.37402873E+000  -7.79582374E-005    2614.73  <-- SCF
     28  -2.71384796E+005  4.37582467E+000  -3.00527920E-005    2712.40  <-- SCF
     29  -2.71384787E+005  4.37795409E+000  -3.51637817E-005    2809.18  <-- SCF
     30  -2.71384787E+005  4.37828745E+000  -1.82075515E-006    2878.00  <-- SCF
     31  -2.71384787E+005  4.37880209E+000   1.30487432E-006    2949.70  <-- SCF
     32  -2.71384787E+005  4.37887610E+000  -2.66595536E-006    3010.85  <-- SCF
     33  -2.71384787E+005  4.37894908E+000   6.38040554E-008    3072.56  <-- SCF
     34  -2.71384787E+005  4.37889930E+000   1.32931294E-007    3135.69  <-- SCF
------------------------------------------------------------------------ <-- SCF
 
Integrated Spin Density     =    0.135769     hbar/2                        
Integrated |Spin Density|   =    0.214577     hbar/2                        
 
Final energy, E             =  -271380.2676689     eV
Final free energy (E-TS)    =  -271384.7866717     eV
(energies not corrected for finite basis set)
 
NB est. 0K energy (E-0.5TS)      =  -271382.5271703     eV
 

Writing analysis data to castep.castep_bin

Writing model to castep.check
 
+---------------- MEMORY AND SCRATCH DISK ESTIMATES PER PROCESS --------------+
|                                                     Memory          Disk    |
| Model and support data                              750.6 MB         0.0 MB |
| Electronic energy minimisation requirements         236.0 MB         0.0 MB |
| Geometry minimisation requirements                  309.4 MB         0.0 MB |
|                                               ----------------------------- |
| Approx. total storage required per process         1296.0 MB         0.0 MB |
|                                                                             |
| Requirements will fluctuate during execution and may exceed these estimates |
+-----------------------------------------------------------------------------+
 
 
 ************************************** Forces **************************************
 *                                                                                  *
 *                           Cartesian components (eV/A)                            *
 * -------------------------------------------------------------------------------- *
 *                         x                    y                    z              *
 *                                                                                  *
 * Al              1     -0.11387             -0.00797             -0.02759         *
 * Al              2      0.03585             -0.02612             -0.00297         *
 * Al              3     -0.11283             -0.02153              0.01324         *
 * Al              4      0.07243             -0.01126              0.00767         *
 * Al              5     -0.06612              0.00936             -0.13561         *
 * Al              6      0.11454              0.02553              0.00472         *
 * Al              7     -0.15803              0.03542             -0.03381         *
 * Al              8      0.06629              0.01569             -0.02489         *
 * Al              9     -0.09456              0.04078             -0.01132         *
 * Al             10      0.05742              0.01339             -0.03113         *
 * Al             11     -0.05119             -0.13063             -0.00900         *
 * Al             12      0.10546             -0.00429             -0.01851         *
 * Al             13      0.37246              0.09980             -0.02751         *
 * Al             14      0.04625             -0.03934             -0.03683         *
 * Al             15     -0.00962             -0.01015             -0.13406         *
 * Al             16      0.07477              0.02870             -0.02721         *
 * Al             17     -0.09507             -0.05585              0.04856         *
 * Al             18      0.02045              0.02350             -0.00278         *
 * Al             19     -0.07500              0.03471              0.01330         *
 * Al             20      0.06964             -0.00331             -0.01047         *
 * Al             21     -0.03889              0.01222              0.14173         *
 * Al             22      0.12192              0.00515              0.00706         *
 * Al             23      0.01901              0.01664              0.13493         *
 * Al             24      0.03078             -0.00524             -0.00288         *
 * Al             25     -0.10014             -0.06003             -0.01087         *
 * Al             26     -0.01560             -0.02145              0.01054         *
 * Al             27     -0.11738             -0.01483             -0.00072         *
 * Al             28      0.05873              0.02173              0.00473         *
 * Al             29     -0.15403              0.05595              0.01617         *
 * Al             30      0.04599             -0.00047              0.00910         *
 * Al             31     -0.18574              0.01902              0.02108         *
 * Al             32      0.08169             -0.02036              0.02063         *
 * Al             33      0.14251              0.17685              0.05265         *
 * Al             34      0.38823              0.14486              0.32492         *
 * Al             35     -0.01805              0.00180             -0.11071         *
 * Al             36      0.15735              0.04891              0.22587         *
 * Al             37     -0.05146             -0.29424             -0.04669         *
 * Al             38      0.04591              0.03198              0.19465         *
 * Al             39     -0.51888             -0.27080              0.57248         *
 * Al             40      0.08785             -0.25723             -0.00836         *
 * Al             41     -0.70648             -0.01888              0.59748         *
 * Al             42      0.24273              0.10036             -0.08175         *
 * Al             43     -0.14642             -0.09222             -0.02678         *
 * Al             44      0.08245             -0.07703              0.34956         *
 * Al             45     -0.06980             -0.01900              0.01643         *
 * Al             46     -0.02180              0.06822             -0.01654         *
 * Al             47     -0.37682             -0.07338              0.01687         *
 * Al             48     -0.25574             -0.07149             -0.02697         *
 * Al             49      0.01967              0.17222              0.13151         *
 * Al             50     -0.29797              0.05062             -0.05010         *
 * Al             51     -0.48943             -0.11640             -0.67071         *
 * Al             52     -0.14016              0.07562              0.19663         *
 * Al             53     -0.55919             -0.04353             -0.66115         *
 * Al             54      0.10812             -0.05335             -0.17286         *
 * Al             55     -0.18911             -0.10623             -0.13425         *
 * Al             56      0.23074              0.03765             -0.00306         *
 * Al             57     -0.22081             -0.11408             -0.14518         *
 * Al             58     -0.08186              0.02623              0.14400         *
 * Al             59     -0.00814              0.10789             -0.28849         *
 * Al             60     -0.18848             -0.03446             -0.14919         *
 * Al             61      0.01866              0.04646              0.02769         *
 * Al             62     -0.11851             -0.00946              0.18950         *
 * Al             63     -0.02267              0.11277             -0.00553         *
 * Ni              1     -0.00405              0.05226             -0.02629         *
 * Ni              2      0.00444             -0.00008              0.01201         *
 * Ni              3      0.01649              0.01555             -0.01018         *
 * Ni              4      0.10626             -0.01264             -0.02167         *
 * Ni              5      0.12790             -0.05375             -0.09359         *
 * Ni              6      0.10895              0.05019             -0.11376         *
 * Ni              7      0.11960              0.21689              0.29628         *
 * Ni              8      0.02792             -0.01556              0.01629         *
 * Ni              9      0.04117              0.00804             -0.02985         *
 * Ni             10     -0.00280              0.00128              0.02310         *
 * Ni             11      0.32966             -0.04201             -0.11191         *
 * Ni             12      0.19545              0.10003             -0.06151         *
 * Ni             13      0.10708             -0.15461              0.18216         *
 * Ni             14     -0.04887             -0.01624              0.00386         *
 * Ni             15     -0.07997             -0.02148              0.03107         *
 * Ni             16     -0.01568              0.00220             -0.01324         *
 * Ni             17      0.16152              0.12427              0.00401         *
 * Ni             18      0.14431             -0.02329             -0.15557         *
 * Ni             19      0.00020             -0.01533              0.08422         *
 * Ni             20      0.05976              0.01202              0.00249         *
 * Ni             21     -0.00109             -0.00494             -0.01325         *
 * Ni             22      0.02799              0.00444             -0.02210         *
 * Ni             23      0.19174             -0.02963             -0.05087         *
 * Ni             24      0.02427             -0.14952             -0.16121         *
 * Ni             25      0.19122              0.04933              0.01594         *
 * Ni             26      0.04583              0.07192              0.01168         *
 * Ni             27      0.06831              0.00373             -0.03117         *
 * Ni             28      0.00057              0.02310             -0.06256         *
 * Ni             29      0.06358              0.06589              0.00214         *
 * Ni             30      0.24336             -0.07067             -0.10241         *
 * Ni             31      0.14961              0.22407             -0.30905         *
 * Ni             32     -0.03299             -0.04676              0.02121         *
 * Ni             33     -0.05096              0.03149              0.01259         *
 * Ni             34     -0.05282             -0.07627             -0.02101         *
 * Ni             35      0.20025             -0.01958             -0.01994         *
 * Ni             36      0.27480              0.12579              0.04848         *
 * Ni             37      0.20480             -0.05049             -0.07610         *
 * Ni             38      0.02723             -0.04531              0.00680         *
 * Ni             39     -0.06880              0.00037              0.02359         *
 * Ni             40     -0.01015             -0.04043             -0.02540         *
 * Ni             41      0.37554              0.02881             -0.03726         *
 * Ni             42      0.24733              0.07034             -0.06177         *
 * Ni             43      0.09198             -0.07710              0.02139         *
 * Ni             44      0.09501              0.01177             -0.00484         *
 * Ni             45     -0.02956             -0.01544              0.03481         *
 * Ni             46      0.00931              0.07354             -0.00336         *
 * Ni             47     -0.12557              0.15113              0.09886         *
 * Ni             48     -0.07475             -0.16133             -0.10478         *
 * Ni             49      0.03601             -0.05539             -0.07387         *
 * Ni             50     -0.03518              0.00887             -0.01133         *
 * Ni             51     -0.00356              0.00712             -0.01963         *
 * Ni             52      0.04551             -0.01071              0.01028         *
 * Ni             53     -0.21360             -0.26338             -0.09293         *
 * Ni             54     -0.24556             -0.08118             -0.23868         *
 * Ni             55      0.09500             -0.01018             -0.14882         *
 * Ni             56     -0.02542             -0.00502             -0.03746         *
 * Ni             57     -0.00483              0.01082              0.01681         *
 * Ni             58     -0.02622              0.01784             -0.02867         *
 * Ni             59     -0.17456              0.21721              0.01735         *
 * Ni             60      0.07596             -0.13037             -0.05567         *
 * Ni             61      0.10185              0.04600             -0.15135         *
 * Ni             62     -0.01105             -0.02462             -0.00662         *
 * Ni             63     -0.10654             -0.00174             -0.04653         *
 * Ni             64     -0.03384              0.01404              0.01603         *
 * Ni             65     -0.05785             -0.08989              0.10079         *
 * Ni             66      0.10090              0.04438             -0.04506         *
 * Ni             67      0.07066              0.02725             -0.13671         *
 * Ni             68     -0.01630              0.01210             -0.01429         *
 * Ni             69     -0.03930             -0.02061             -0.01815         *
 * Ni             70     -0.01367             -0.03213             -0.00480         *
 * Ni             71     -0.30641              0.04470             -0.52775         *
 * Ni             72     -0.12274             -0.04029              0.11662         *
 * Ni             73      0.07778             -0.00137              0.00763         *
 * Ni             74      0.03416              0.00464             -0.00088         *
 * Ni             75      0.12505             -0.01188              0.05071         *
 * Ni             76      0.01286             -0.02818              0.04998         *
 * Ni             77     -0.00430             -0.07481             -0.12474         *
 * Ni             78     -0.26173              0.00578              0.22122         *
 * Ni             79      0.12118             -0.03286              0.14062         *
 * Ni             80      0.02584              0.02677              0.00245         *
 * Ni             81     -0.00308              0.01550             -0.01393         *
 * Ni             82      0.00295             -0.01320             -0.00899         *
 * Ni             83      0.00885             -0.04360             -0.12085         *
 * Ni             84     -0.07371             -0.01900             -0.13282         *
 * Ni             85      0.13202             -0.00978              0.04822         *
 * Ni             86      0.00408             -0.00485             -0.01113         *
 * Ni             87     -0.00965             -0.01171             -0.00788         *
 * Ni             88     -0.04889              0.02269              0.01965         *
 * Ni             89      0.11325              0.12041             -0.15816         *
 * Ni             90     -0.29027             -0.36769             -0.13948         *
 * Ni             91      0.13604              0.05558              0.00382         *
 * Ni             92      0.01522             -0.03033              0.01349         *
 * Ni             93     -0.00665              0.00521             -0.03918         *
 * Ni             94      0.01326              0.01706              0.01749         *
 * Ni             95     -0.14876             -0.08959              0.09596         *
 * Ni             96     -0.44982              0.24735             -0.13699         *
 * Ni             97     -0.20774              0.34643              0.10376         *
 * Ni             98      0.01891             -0.17697              0.18078         *
 * Ni             99      0.07959              0.29973              0.19418         *
 * Ni            100      0.23949              0.07115              0.10454         *
 * Ni            101     -0.20768              0.01841             -0.04375         *
 * Ni            102      0.03064             -0.08349              0.16828         *
 * Ni            103      0.08375              0.00809              0.06561         *
 * Ni            104      0.14742             -0.25322              0.49601         *
 * Ni            105     -0.04094             -0.18107              0.04779         *
 * Ni            106      0.32520             -0.06428              0.02574         *
 * Ni            107     -0.19269             -0.14758              0.01131         *
 * Ni            108     -0.06529              0.00630              0.02667         *
 * Ni            109      0.01958              0.00483             -0.02089         *
 * Ni            110     -0.16827             -0.16037              0.15139         *
 * Ni            111     -0.22421             -0.05397             -0.05576         *
 * Ni            112      0.02312             -0.13446             -0.04542         *
 * Ni            113      0.25831              0.12842              0.06771         *
 * Ni            114      0.01218             -0.03385              0.02131         *
 * Ni            115     -0.05560              0.00699              0.14016         *
 * Ni            116      0.13042              0.23761              0.18650         *
 * Ni            117      0.06754              0.01341              0.12419         *
 * Ni            118      0.13787              0.00165              0.15893         *
 * Ni            119      0.15808              0.08125              0.02474         *
 * Ni            120     -0.03003              0.05786             -0.26168         *
 * Ni            121     -0.12070             -0.08071              0.24681         *
 * Ni            122     -0.16674             -0.04969              0.12952         *
 * Ni            123     -0.05974              0.15185             -0.15541         *
 * Ni            124      0.13230              0.05040             -0.02576         *
 * Ni            125      0.23652              0.31655             -0.09207         *
 * Ni            126     -0.25039             -0.15101              0.13655         *
 * Ni            127     -0.01531             -0.06652             -0.21529         *
 * Ni            128     -0.20625             -0.06184             -0.01660         *
 * Ni            129      0.00636              0.16707             -0.12675         *
 * Ni            130      0.08547             -0.09523              0.01231         *
 * Ni            131      0.03085             -0.00168              0.09017         *
 * Ni            132      0.15469             -0.02921              0.05412         *
 * Ni            133      0.11930             -0.15155             -0.11762         *
 * Ni            134     -0.08362              0.02416              0.30211         *
 * Ni            135     -0.21419              0.04715              0.06287         *
 * Ni            136     -0.15949              0.05137             -0.15498         *
 * Ni            137     -0.32257             -0.40038             -0.03686         *
 * Ni            138      0.12275              0.09585             -0.01885         *
 * Ni            139     -0.13950             -0.03176             -0.09019         *
 * Ni            140      0.12370             -0.02916              0.00015         *
 * Ni            141     -0.12955              0.07856              0.19740         *
 * Ni            142      0.17519              0.01921             -0.11722         *
 * Ni            143      0.32076              0.20115             -0.20440         *
 * Ni            144     -0.10643             -0.08203              0.01280         *
 * Ni            145      0.25843              0.03473             -0.14852         *
 * Ni            146     -0.31704             -0.11483              0.13325         *
 * Ni            147      0.01261             -0.04019             -0.01592         *
 * Ni            148      0.29833              0.11034             -0.03748         *
 * Ni            149      0.33887             -0.02315             -0.28858         *
 * Ni            150     -0.10081              0.12425              0.23606         *
 * Ni            151     -0.17513              0.05936              0.01128         *
 * Ni            152      0.04221             -0.01817             -0.06595         *
 * Ni            153     -0.08425              0.13120             -0.33997         *
 * Ni            154      0.25140              0.21244              0.03796         *
 * Ni            155     -0.00496             -0.10696              0.07260         *
 * Ni            156     -0.05550             -0.12665             -0.29956         *
 * Ni            157      0.25472              0.05579             -0.26071         *
 * Ni            158     -0.16962              0.10578              0.24702         *
 * Ni            159     -0.15582             -0.03921              0.10141         *
 * Ni            160     -0.25485              0.17667              0.20426         *
 * Ni            161      0.03877              0.06140              0.10506         *
 * Ni            162     -0.00435             -0.15379              0.08025         *
 * Ni            163      0.04538              0.04816              0.24564         *
 * Ni            164      0.33822              0.05121             -0.12002         *
 * Ni            165     -0.32758              0.04663              0.17243         *
 * Ni            166     -0.12067             -0.02418             -0.02487         *
 * Ni            167     -0.06058             -0.17077              0.10134         *
 * Ni            168     -0.16967              0.16313              0.27228         *
 * Ni            169     -0.02884             -0.11391             -0.06193         *
 * Ni            170      0.05153              0.13042             -0.04388         *
 * Ni            171      0.36747              0.12573              0.36485         *
 * Ni            172      0.28608             -0.14848             -0.10232         *
 * Ni            173     -0.26834              0.25685             -0.05381         *
 * Ni            174      0.11425             -0.11880              0.06942         *
 * Ni            175      0.04855             -0.15639             -0.03205         *
 * Ni            176     -0.01345             -0.05452              0.23757         *
 * Ni            177      0.02974             -0.01789             -0.14867         *
 * Ni            178      0.02435              0.08451             -0.23547         *
 * Ni            179      0.40401             -0.06238              0.07262         *
 * Ni            180     -0.08098              0.02144             -0.10512         *
 * Ni            181     -0.03940             -0.00831              0.04882         *
 * Ni            182     -0.16151             -0.15897             -0.07833         *
 * Ni            183      0.06678              0.10255              0.37962         *
 * Ni            184     -0.14325              0.16280              0.01200         *
 * Ni            185      0.16900             -0.04502              0.03528         *
 * Ni            186     -0.00949             -0.09295             -0.12667         *
 * Ni            187     -0.07293             -0.10470             -0.17930         *
 * Ni            188      0.04497              0.17960             -0.05354         *
 * Ni            189     -0.02422              0.09709              0.31651         *
 * Ni            190      0.11939             -0.03255             -0.18491         *
 * Ni            191     -0.05733              0.02791             -0.10422         *
 * Ni            192      0.07408             -0.02099             -0.14200         *
 *                                                                                  *
 ************************************************************************************
 LBFGS: finished iteration     0 with enthalpy= -2.71384787E+005 eV
  
 +-----------+-----------------+-----------------+------------+-----+ <-- LBFGS
 | Parameter |      value      |    tolerance    |    units   | OK? | <-- LBFGS
 +-----------+-----------------+-----------------+------------+-----+ <-- LBFGS
 |  dE/ion   |   0.000000E+000 |   2.000000E-005 |         eV | No  | <-- LBFGS
 |  |F|max   |   9.254511E-001 |   5.000000E-002 |       eV/A | No  | <-- LBFGS
 |  |dR|max  |   0.000000E+000 |   1.000000E-003 |          A | No  | <-- LBFGS
 +-----------+-----------------+-----------------+------------+-----+ <-- LBFGS
  

================================================================================
 Starting LBFGS iteration          1 ...
================================================================================
  
 +------------+-------------+-------------+-----------------+ <-- min LBFGS
 |    Step    |   lambda    |   F.delta'  |    enthalpy     | <-- min LBFGS
 +------------+-------------+-------------+-----------------+ <-- min LBFGS
 |  previous  |    0.000000 |    2.088212 |  -271384.786672 | <-- min LBFGS
 +------------+-------------+-------------+-----------------+ <-- min LBFGS
  

--------------------------------------------------------------------------------
 LBFGS: starting iteration         1 with trial guess (lambda=  1.000000)
--------------------------------------------------------------------------------
 
                           -------------------------------
                                     Cell Contents
                           -------------------------------
 
            xxxxxxxxxxxxxxxxxxxxxxxxxxxxxxxxxxxxxxxxxxxxxxxxxxxxxxxxxxxxxxxxx
            x  Element         Atom        Fractional coordinates of atoms  x
            x                 Number           u          v          w      x
            x---------------------------------------------------------------x
            x  Al                1         0.570150   0.307961   0.813362   x
            x  Al                2         0.818163   0.308834   0.812796   x
            x  Al                3         0.568911   0.558640   0.814282   x
            x  Al                4         0.817610   0.558357   0.813253   x
            x  Al                5         0.573854   0.808654   0.809619   x
            x  Al                6         0.818481   0.807845   0.812490   x
            x  Al                7         0.571089   0.058596   0.813078   x
            x  Al                8         0.819230   0.058769   0.812177   x
            x  Al                9         0.569354   0.306764   0.063292   x
            x  Al               10         0.818567   0.308152   0.062621   x
            x  Al               11         0.573468   0.553995   0.062726   x
            x  Al               12         0.817533   0.558340   0.062534   x
            x  Al               13         0.576365   0.813460   0.063041   x
            x  Al               14         0.818940   0.808622   0.062385   x
            x  Al               15         0.573144   0.057791   0.059254   x
            x  Al               16         0.819609   0.058548   0.062288   x
            x  Al               17         0.576427   0.302567   0.312564   x
            x  Al               18         0.818828   0.308569   0.312801   x
            x  Al               19         0.574789   0.563916   0.311366   x
            x  Al               20         0.817849   0.558902   0.312568   x
            x  Al               21         0.574765   0.808846   0.315626   x
            x  Al               22         0.819387   0.808402   0.313246   x
            x  Al               23         0.576811   0.058114   0.318800   x
            x  Al               24         0.820271   0.057895   0.313461   x
            x  Al               25         0.572448   0.308659   0.562841   x
            x  Al               26         0.818510   0.309327   0.563670   x
            x  Al               27         0.569832   0.558456   0.563464   x
            x  Al               28         0.817992   0.558414   0.563428   x
            x  Al               29         0.570166   0.808051   0.563593   x
            x  Al               30         0.819444   0.807703   0.563711   x
            x  Al               31         0.571926   0.058082   0.562380   x
            x  Al               32         0.820125   0.058432   0.564103   x
            x  Al               33         0.328720   0.182974   0.683346   x
            x  Al               34         0.056085   0.057422   0.557782   x
            x  Al               35         0.192363   0.189958   0.555120   x
            x  Al               36         0.321873   0.935127   0.688774   x
            x  Al               37         0.192757   0.929493   0.554327   x
            x  Al               38         0.318458   0.687134   0.690402   x
            x  Al               39         0.074687   0.687446   0.678597   x
            x  Al               40         0.197833   0.188963   0.322415   x
            x  Al               41         0.066480   0.805917   0.315367   x
            x  Al               42         0.325115   0.685491   0.437977   x
            x  Al               43         0.192395   0.667395   0.313600   x
            x  Al               44         0.440188   0.432761   0.320682   x
            x  Al               45         0.327969   0.548902   0.560962   x
            x  Al               46         0.192965   0.432820   0.311271   x
            x  Al               47         0.061082   0.434654   0.438580   x
            x  Al               48         0.317591   0.061427   0.062205   x
            x  Al               49         0.439666   0.058161   0.195442   x
            x  Al               50         0.186451   0.054652   0.934758   x
            x  Al               51         0.067807   0.184789   0.191065   x
            x  Al               52         0.433070   0.813809   0.189999   x
            x  Al               53         0.070999   0.945349   0.191514   x
            x  Al               54         0.201158   0.808210   0.181952   x
            x  Al               55         0.431654   0.675090   0.062444   x
            x  Al               56         0.322533   0.430443   0.180623   x
            x  Al               57         0.183755   0.424910   0.060307   x
            x  Al               58         0.187146   0.186071   0.806487   x
            x  Al               59         0.433629   0.814936   0.935573   x
            x  Al               60         0.192322   0.810965   0.937090   x
            x  Al               61         0.191345   0.426212   0.804259   x
            x  Al               62         0.192447   0.426337   0.568944   x
            x  Al               63         0.187815   0.565400   0.933125   x
            x  Ni                1         0.567693   0.431649   0.937497   x
            x  Ni                2         0.693806   0.307874   0.938010   x
            x  Ni                3         0.693255   0.433458   0.813342   x
            x  Ni                4         0.817654   0.433520   0.937987   x
            x  Ni                5         0.942588   0.308949   0.937596   x
            x  Ni                6         0.942467   0.433923   0.812882   x
            x  Ni                7         0.563412   0.686745   0.941340   x
            x  Ni                8         0.692510   0.558767   0.937910   x
            x  Ni                9         0.692604   0.682741   0.813808   x
            x  Ni               10         0.818284   0.683200   0.937718   x
            x  Ni               11         0.942348   0.558456   0.937767   x
            x  Ni               12         0.942788   0.683042   0.812812   x
            x  Ni               13         0.567951   0.932180   0.935887   x
            x  Ni               14         0.694584   0.808561   0.936868   x
            x  Ni               15         0.695031   0.933887   0.811877   x
            x  Ni               16         0.819421   0.933438   0.936901   x
            x  Ni               17         0.942873   0.808042   0.937373   x
            x  Ni               18         0.943326   0.933024   0.812411   x
            x  Ni               19         0.568206   0.183352   0.937557   x
            x  Ni               20         0.695023   0.058282   0.936480   x
            x  Ni               21         0.693966   0.183602   0.812473   x
            x  Ni               22         0.818853   0.183574   0.937301   x
            x  Ni               23         0.943267   0.058498   0.937212   x
            x  Ni               24         0.943162   0.183996   0.812590   x
            x  Ni               25         0.566424   0.431990   0.191492   x
            x  Ni               26         0.694250   0.306861   0.187141   x
            x  Ni               27         0.693253   0.431711   0.063579   x
            x  Ni               28         0.818190   0.433427   0.187563   x
            x  Ni               29         0.942594   0.308814   0.187871   x
            x  Ni               30         0.942227   0.433811   0.062716   x
            x  Ni               31         0.563872   0.687281   0.183469   x
            x  Ni               32         0.693657   0.559238   0.187100   x
            x  Ni               33         0.693518   0.683802   0.062492   x
            x  Ni               34         0.818668   0.683858   0.187240   x
            x  Ni               35         0.942129   0.558670   0.187748   x
            x  Ni               36         0.942692   0.683325   0.062583   x
            x  Ni               37         0.567491   0.935047   0.190039   x
            x  Ni               38         0.694701   0.809626   0.188118   x
            x  Ni               39         0.696228   0.934790   0.062406   x
            x  Ni               40         0.819960   0.933524   0.187925   x
            x  Ni               41         0.943175   0.808220   0.187775   x
            x  Ni               42         0.943255   0.933214   0.062404   x
            x  Ni               43         0.568371   0.179094   0.188235   x
            x  Ni               44         0.694946   0.057578   0.188039   x
            x  Ni               45         0.694583   0.182778   0.062525   x
            x  Ni               46         0.819547   0.182872   0.187412   x
            x  Ni               47         0.943727   0.058315   0.187861   x
            x  Ni               48         0.943111   0.183595   0.062453   x
            x  Ni               49         0.570541   0.433609   0.434666   x
            x  Ni               50         0.695957   0.308342   0.438597   x
            x  Ni               51         0.694484   0.433447   0.312149   x
            x  Ni               52         0.818260   0.434113   0.438091   x
            x  Ni               53         0.942778   0.309267   0.438168   x
            x  Ni               54         0.942275   0.434050   0.312919   x
            x  Ni               55         0.568373   0.684424   0.439146   x
            x  Ni               56         0.694116   0.559273   0.438192   x
            x  Ni               57         0.694815   0.684825   0.312028   x
            x  Ni               58         0.818750   0.683286   0.438327   x
            x  Ni               59         0.942442   0.558696   0.437991   x
            x  Ni               60         0.942535   0.683287   0.312963   x
            x  Ni               61         0.570282   0.932673   0.439839   x
            x  Ni               62         0.695637   0.808135   0.439701   x
            x  Ni               63         0.696686   0.933255   0.314104   x
            x  Ni               64         0.820285   0.932832   0.439125   x
            x  Ni               65         0.943436   0.807822   0.438360   x
            x  Ni               66         0.943727   0.933029   0.313311   x
            x  Ni               67         0.571338   0.182752   0.439396   x
            x  Ni               68         0.697524   0.057900   0.440298   x
            x  Ni               69         0.697709   0.182008   0.313381   x
            x  Ni               70         0.820137   0.183621   0.439090   x
            x  Ni               71         0.943811   0.058313   0.438481   x
            x  Ni               72         0.942900   0.183663   0.313167   x
            x  Ni               73         0.567713   0.433826   0.689175   x
            x  Ni               74         0.693436   0.308765   0.688346   x
            x  Ni               75         0.692972   0.434183   0.562994   x
            x  Ni               76         0.817840   0.433897   0.688196   x
            x  Ni               77         0.943012   0.309286   0.687943   x
            x  Ni               78         0.942681   0.434111   0.563105   x
            x  Ni               79         0.567370   0.683271   0.687814   x
            x  Ni               80         0.692832   0.558410   0.688676   x
            x  Ni               81         0.693923   0.682963   0.563600   x
            x  Ni               82         0.818200   0.682694   0.688487   x
            x  Ni               83         0.942689   0.558456   0.688122   x
            x  Ni               84         0.942972   0.682926   0.563254   x
            x  Ni               85         0.568591   0.933868   0.686947   x
            x  Ni               86         0.694810   0.807944   0.687322   x
            x  Ni               87         0.695432   0.932955   0.563899   x
            x  Ni               88         0.819482   0.933278   0.687985   x
            x  Ni               89         0.943173   0.807773   0.688087   x
            x  Ni               90         0.943928   0.932877   0.563401   x
            x  Ni               91         0.568217   0.182794   0.687483   x
[...]
            Ni 151 -- Ni 152                 0.03         0.00          2.58883
             Al 53 -- Ni 163                 0.16        -0.00          2.58894
            Ni 126 -- Ni 144                 0.07         0.00          2.58904
             Al 5  -- Ni 108                 0.17         0.00          2.58924
             Al 9  -- Ni 25                  0.20        -0.00          2.58954
            Ni 116 -- Ni 118                 0.02        -0.00          2.58977
             Al 21 -- Ni 37                  0.20         0.00          2.58984
            Ni 14  -- Ni 39                  0.02        -0.00          2.58996
             Al 25 -- Ni 49                  0.19        -0.00          2.59004
             Al 40 -- Ni 145                 0.17         0.00          2.59011
            Ni 49  -- Ni 75                  0.06         0.00          2.59031
            Ni 138 -- Ni 139                -0.01         0.00          2.59050
             Al 60 -- Ni 112                 0.17        -0.00          2.59053
             Al 3  -- Ni 180                 0.17        -0.00          2.59071
             Al 15 -- Ni 144                 0.17         0.00          2.59090
             Al 49 -- Ni 37                  0.17         0.00          2.59106
            Ni 111 -- Ni 113                 0.08        -0.00          2.59129
            Ni 114 -- Ni 140                 0.05        -0.00          2.59140
             Al 36 -- Ni 190                 0.18        -0.00          2.59142
            Ni 127 -- Ni 135                 0.09         0.00          2.59154
            Ni 133 -- Ni 135                 0.02        -0.00          2.59158
            Ni 71  -- Ni 96                  0.02         0.00          2.59169
             Al 15 -- Ni 44                  0.20        -0.00          2.59173
            Ni 1   -- Ni 8                   0.03        -0.00          2.59175
            Ni 67  -- Ni 165                 0.02         0.00          2.59176
             Al 16 -- Ni 40                  0.19        -0.00          2.59185
             Al 23 -- Ni 37                  0.20         0.00          2.59224
            Ni 55  -- Ni 181                 0.07         0.00          2.59246
             Al 62 -- Ni 179                 0.11        -0.00          2.59255
            Ni 101 -- Ni 144                 0.09        -0.00          2.59266
             Al 36 -- Ni 188                 0.19        -0.00          2.59292
            Ni 29  -- Ni 48                  0.01        -0.00          2.59311
            Ni 119 -- Ni 144                 0.08        -0.00          2.59311
            Ni 110 -- Ni 112                 0.05        -0.00          2.59314
             Al 24 -- Ni 46                  0.19         0.00          2.59348
            Ni 25  -- Ni 32                  0.03         0.00          2.59363
            Ni 102 -- Ni 172                 0.06        -0.00          2.59411
             Al 9  -- Ni 43                  0.21        -0.00          2.59453
            Ni 35  -- Ni 129                 0.10         0.00          2.59454
            Ni 108 -- Ni 182                 0.08         0.00          2.59490
            Ni 106 -- Ni 131                 0.01        -0.00          2.59511
            Ni 41  -- Ni 42                  0.03        -0.00          2.59549
            Ni 13  -- Ni 139                -0.00         0.00          2.59559
            Ni 129 -- Ni 149                 0.09        -0.00          2.59584
             Al 9  -- Ni 144                 0.19         0.00          2.59615
            Ni 37  -- Ni 38                  0.07         0.00          2.59626
             Al 38 -- Ni 188                 0.17        -0.00          2.59638
            Ni 55  -- Ni 57                  0.02         0.00          2.59648
             Al 56 -- Ni 130                 0.13         0.00          2.59670
             Al 60 -- Ni 113                 0.19        -0.00          2.59712
            Ni 49  -- Ni 151                 0.04         0.00          2.59722
            Ni 169 -- Ni 175                -0.03        -0.00          2.59727
            Ni 152 -- Ni 158                 0.02         0.00          2.59789
            Ni 13  -- Ni 120                 0.04        -0.00          2.59793
             Al 27 -- Ni 49                  0.19        -0.00          2.59829
            Ni 172 -- Ni 177                -0.01        -0.00          2.59857
            Ni 117 -- Ni 122                 0.04        -0.00          2.59864
             Al 22 -- Ni 62                  0.19        -0.00          2.59920
            Ni 129 -- Ni 132                 0.12        -0.00          2.59932
             Al 15 -- Ni 37                  0.19        -0.00          2.59937
             Al 61 -- Ni 97                  0.18         0.00          2.59943
             Al 45 -- Ni 177                 0.14         0.00          2.59947
             Al 58 -- Ni 117                 0.15        -0.00          2.59962
            Ni 95  -- Ni 96                  0.01        -0.00          2.59976
            Ni 130 -- Ni 149                -0.01         0.00          2.59992
            Ni 113 -- Ni 139                 0.01        -0.00          2.59993
            Ni 99  -- Ni 169                 0.02        -0.00          2.60017
            Ni 31  -- Ni 134                 0.04         0.00          2.60019
             Al 34 -- Ni 162                 0.16        -0.00          2.60021
            Ni 155 -- Ni 157                 0.07         0.00          2.60033
            Ni 155 -- Ni 156                 0.06         0.00          2.60037
             Al 51 -- Ni 124                 0.19        -0.00          2.60093
            Ni 41  -- Ni 66                 -0.03         0.00          2.60115
            Ni 13  -- Ni 20                  0.06        -0.00          2.60152
            Ni 138 -- Ni 159                 0.02         0.00          2.60152
            Ni 13  -- Ni 39                  0.01         0.00          2.60171
             Al 38 -- Ni 182                 0.19        -0.00          2.60188
             Al 11 -- Ni 33                  0.19        -0.00          2.60226
            Ni 173 -- Ni 192                 0.00         0.00          2.60236
            Ni 178 -- Ni 185                 0.08        -0.00          2.60277
            Ni 130 -- Ni 131                 0.11        -0.00          2.60294
            Ni 112 -- Ni 122                 0.11        -0.00          2.60354
             Al 63 -- Ni 97                  0.17         0.00          2.60370
            Ni 161 -- Ni 162                -0.01         0.00          2.60419
            Ni 59  -- Ni 78                 -0.00         0.00          2.60449
             Al 40 -- Ni 143                 0.19         0.00          2.60541
            Ni 65  -- Ni 148                 0.04         0.00          2.60541
            Ni 117 -- Ni 191                 0.08        -0.00          2.60549
             Al 57 -- Ni 135                 0.15        -0.00          2.60552
             Al 19 -- Ni 151                 0.17        -0.00          2.60596
            Ni 129 -- Ni 130                 0.09         0.00          2.60645
            Ni 170 -- Ni 171                -0.03        -0.00          2.60673
            Ni 133 -- Ni 160                -0.03         0.00          2.60685
            Ni 111 -- Ni 115                 0.04        -0.00          2.60696
             Al 50 -- Ni 142                 0.15        -0.00          2.60699
            Ni 178 -- Ni 184                 0.03         0.00          2.60718
            Ni 104 -- Ni 177                 0.05        -0.00          2.60719
             Al 40 -- Ni 124                 0.19         0.00          2.60750
            Ni 60  -- Ni 65                  0.01         0.00          2.60751
             Al 19 -- Ni 49                  0.19        -0.00          2.60753
             Al 58 -- Ni 122                 0.18        -0.00          2.60761
             Al 41 -- Ni 129                 0.19         0.00          2.60778
             Al 35 -- Ni 122                 0.18         0.00          2.60779
            Ni 142 -- Ni 143                 0.05        -0.00          2.60786
            Ni 71  -- Ni 90                  0.02         0.00          2.60798
            Ni 53  -- Ni 54                  0.00         0.00          2.60821
            Ni 47  -- Ni 163                 0.05        -0.00          2.60841
             Al 17 -- Ni 146                 0.15         0.00          2.60929
            Ni 169 -- Ni 172                 0.00        -0.00          2.60966
             Al 34 -- Ni 122                 0.16         0.00          2.60969
             Al 11 -- Ni 7                   0.19         0.00          2.60982
             Al 49 -- Ni 139                 0.17         0.00          2.61000
             Al 56 -- Ni 124                 0.14         0.00          2.61047
            Ni 168 -- Ni 177                 0.04        -0.00          2.61097
            Ni 158 -- Ni 181                -0.01         0.00          2.61114
            Ni 148 -- Ni 150                 0.03         0.00          2.61143
             Al 56 -- Ni 153                 0.17        -0.00          2.61188
             Al 43 -- Ni 155                 0.18        -0.00          2.61216
             Al 51 -- Ni 163                 0.16        -0.00          2.61220
            Ni 54  -- Ni 59                  0.00         0.00          2.61229
            Ni 127 -- Ni 134                 0.02         0.00          2.61285
            Ni 102 -- Ni 109                 0.00        -0.00          2.61294
             Al 48 -- Ni 120                 0.19        -0.00          2.61343
            Ni 102 -- Ni 108                 0.11        -0.00          2.61350
            Ni 156 -- Ni 167                 0.11        -0.00          2.61367
            Ni 115 -- Ni 117                 0.10        -0.00          2.61415
             Al 11 -- Ni 31                  0.19        -0.00          2.61445
            Ni 26  -- Ni 43                  0.06         0.00          2.61468
             Al 21 -- Ni 159                 0.15         0.00          2.61505
             Al 53 -- Ni 137                 0.18         0.00          2.61516
            Ni 42  -- Ni 47                 -0.01        -0.00          2.61585
            Ni 174 -- Ni 182                 0.00         0.00          2.61607
             Al 61 -- Ni 104                 0.15         0.00          2.61654
            Ni 110 -- Ni 118                 0.04        -0.00          2.61664
             Al 11 -- Ni 134                 0.16        -0.00          2.61696
            Ni 152 -- Ni 160                 0.01         0.00          2.61716
            Ni 143 -- Ni 167                 0.00         0.00          2.61745
            Ni 53  -- Ni 78                  0.00         0.00          2.61754
            Ni 65  -- Ni 66                  0.01         0.00          2.61788
            Ni 108 -- Ni 111                 0.03        -0.00          2.61822
             Al 36 -- Ni 184                 0.18         0.00          2.61856
             Al 58 -- Ni 119                 0.17        -0.00          2.61916
            Ni 138 -- Ni 160                 0.05         0.00          2.61989
            Ni 37  -- Ni 39                  0.01         0.00          2.62153
            Ni 126 -- Ni 128                 0.09         0.00          2.62179
             Al 36 -- Ni 122                 0.17         0.00          2.62303
            Ni 121 -- Ni 173                 0.01         0.00          2.62328
            Ni 178 -- Ni 179                 0.05        -0.00          2.62437
            Ni 158 -- Ni 160                 0.11         0.00          2.62452
             Al 5  -- Ni 115                 0.15         0.00          2.62527
            Ni 140 -- Ni 141                 0.07        -0.00          2.62553
             Al 50 -- Ni 117                 0.14        -0.00          2.62582
            Ni 25  -- Ni 127                 0.02         0.00          2.62641
            Ni 150 -- Ni 153                 0.10        -0.00          2.62645
            Ni 152 -- Ni 153                 0.10        -0.00          2.62649
            Ni 136 -- Ni 141                 0.01        -0.00          2.62722
            Ni 7   -- Ni 107                 0.02        -0.00          2.62757
             Al 47 -- Ni 150                 0.18        -0.00          2.62782
             Al 11 -- Ni 107                 0.16         0.00          2.62898
            Ni 159 -- Ni 160                 0.09         0.00          2.62905
             Al 39 -- Ni 178                 0.18        -0.00          2.62927
            Ni 124 -- Ni 125                 0.03        -0.00          2.62942
            Ni 155 -- Ni 188                 0.03         0.00          2.62967
             Al 42 -- Ni 153                 0.20         0.00          2.63115
            Ni 106 -- Ni 135                 0.04        -0.00          2.63154
            Ni 154 -- Ni 155                 0.06         0.00          2.63201
            Ni 156 -- Ni 157                 0.12        -0.00          2.63210
             Al 5  -- Ni 7                   0.19        -0.00          2.63254
             Al 21 -- Ni 31                  0.19         0.00          2.63286
            Ni 126 -- Ni 127                -0.00         0.00          2.63314
            Ni 25  -- Ni 27                  0.05         0.00          2.63656
             Al 59 -- Ni 7                   0.16        -0.00          2.63678
             Al 19 -- Ni 31                  0.17         0.00          2.63738
             Al 52 -- Ni 37                  0.15        -0.00          2.63759
             Al 37 -- Ni 190                 0.15        -0.00          2.63945
            Ni 114 -- Ni 138                 0.00         0.00          2.64049
             Al 63 -- Ni 100                 0.15        -0.00          2.64108
            Ni 156 -- Ni 162                 0.13         0.00          2.64160
             Al 23 -- Ni 159                 0.14         0.00          2.64309
             Al 48 -- Al 49                  0.26         0.00          2.64487
             Al 23 -- Ni 166                 0.14         0.00          2.64542
            Ni 162 -- Ni 164                 0.01         0.00          2.64552
             Al 48 -- Al 50                  0.25        -0.00          2.64575
             Al 35 -- Ni 189                 0.15         0.00          2.64700
             Al 37 -- Ni 122                 0.16         0.00          2.64966
             Al 13 -- Ni 139                 0.16         0.00          2.64993
             Al 35 -- Ni 190                 0.13        -0.00          2.65116
            Ni 161 -- Ni 170                -0.03         0.00          2.65151
             Al 52 -- Ni 31                  0.15        -0.00          2.65173
             Al 50 -- Al 58                  0.24        -0.00          2.65257
             Al 50 -- Ni 119                 0.14        -0.00          2.65298
            Ni 7   -- Ni 8                   0.06        -0.00          2.65435
            Ni 31  -- Ni 32                  0.05         0.00          2.65511
             Al 3  -- Ni 7                   0.17        -0.00          2.65582
             Al 45 -- Al 62                  0.29         0.00          2.65596
             Al 45 -- Ni 178                 0.11         0.00          2.65683
            Ni 114 -- Ni 133                -0.03         0.00          2.65731
             Al 43 -- Ni 160                 0.14        -0.00          2.66414
             Al 44 -- Al 56                  0.27         0.00          2.66423
             Al 33 -- Ni 122                 0.14         0.00          2.66528
             Al 42 -- Al 43                  0.24         0.00          2.66603
            Ni 7   -- Ni 9                   0.06        -0.00          2.66924
             Al 23 -- Al 49                  0.24         0.00          2.67015
            Ni 149 -- Ni 150                 0.01         0.00          2.67249
            Ni 168 -- Ni 169                 0.03        -0.00          2.67772
             Al 44 -- Ni 134                 0.11         0.00          2.68026
            Ni 164 -- Ni 170                 0.05         0.00          2.68075
            Ni 31  -- Ni 57                  0.05         0.00          2.68485
             Al 46 -- Al 56                  0.26         0.00          2.68496
             Al 42 -- Al 45                  0.26         0.00          2.68840
             Al 56 -- Al 57                  0.22        -0.00          2.69279
            Ni 134 -- Ni 135                 0.08         0.00          2.69785
             Al 46 -- Al 47                  0.25         0.00          2.70578
             Al 44 -- Ni 126                 0.08         0.00          2.70584
             Al 5  -- Al 59                  0.20        -0.00          2.71164
             Al 44 -- Ni 25                  0.11        -0.00          2.71346
             Al 11 -- Al 55                  0.20         0.00          2.71357
             Al 36 -- Al 37                  0.22         0.00          2.71770
             Al 33 -- Al 35                  0.21        -0.00          2.72609
             Al 34 -- Al 35                  0.19        -0.00          2.73105
             Al 47 -- Al 62                  0.22         0.00          2.73342
             Al 57 -- Al 63                  0.19        -0.00          2.73662
             Al 33 -- Al 58                  0.20        -0.00          2.74318
             Al 34 -- Al 37                  0.19         0.00          2.74374
             Al 17 -- Al 44                  0.17         0.00          2.74376
             Al 21 -- Al 52                  0.20         0.00          2.74463
             Al 61 -- Al 63                  0.20        -0.00          2.75118
             Al 42 -- Ni 150                 0.13         0.00          2.75755
             Al 19 -- Al 44                  0.17         0.00          2.75969
             Al 52 -- Al 55                  0.20         0.00          2.76127
             Al 41 -- Al 43                  0.17         0.00          2.76396
             Al 55 -- Al 59                  0.19        -0.00          2.76434
             Al 38 -- Al 45                  0.17        -0.00          2.76778
             Al 40 -- Al 51                  0.20         0.00          2.77434
             Al 15 -- Al 49                  0.19         0.00          2.77470
             Al 53 -- Al 54                  0.18        -0.00          2.77913
             Al 43 -- Al 54                  0.16         0.00          2.79191
             Al 41 -- Al 53                  0.17        -0.00          2.79983
             Al 13 -- Al 59                  0.17        -0.00          2.82628
             Al 13 -- Al 52                  0.17         0.00          2.82979
             Al 41 -- Al 54                  0.12         0.00          2.87536
             Al 13 -- Al 55                  0.07         0.00          2.97231
================================================================================
 

Writing analysis data to castep.castep_bin

Writing model to castep.check
 
 A BibTeX formatted list of references used in this run has been written to 
 castep.bib
 
Initialisation time =     13.86 s
Calculation time    =  16968.47 s
Finalisation time   =     14.03 s
Total time          =  16996.36 s
Peak Memory Use     = 2262844 kB
  
Overall parallel efficiency rating: Good (71%)                                  
  
Data was distributed by:-
G-vector (48-way); efficiency rating: Good (72%)                                
