 +-------------------------------------------------+
 |                                                 |
 |      CCC   AA    SSS  TTTTT  EEEEE  PPPP        |
 |     C     A  A  S       T    E      P   P       |
 |     C     AAAA   SS     T    EEE    PPPP        |
 |     C     A  A     S    T    E      P           |
 |      CCC  A  A  SSS     T    EEEEE  P           |
 |                                                 |
 +-------------------------------------------------+
 |                                                 |
 | Welcome to Academic Release CASTEP version 22.11|
 | Ab Initio Total Energy Program                  |
 |                                                 |
 | Authors:                                        |
 | M. Segall, M. Probert, C. Pickard, P. Hasnip,   |
 | S. Clark, K. Refson, J. R. Yates, M. Payne      |
 |                                                 |
 | Contributors:                                   |
 | P. Lindan, P. Haynes, J. White, V. Milman,      |
 | N. Govind, M. Gibson, P. Tulip, V. Cocula,      |
 | B. Montanari, D. Quigley, M. Glover,            |
 | L. Bernasconi, A. Perlov, M. Plummer,           |
 | E. McNellis, J. Meyer, J. Gale, D. Jochym       |
 | J. Aarons, B. Walker, R. Gillen, D. Jones       |
 | T. Green, I. J. Bush, C. J. Armstrong,          |
 | E. J. Higgins, E. L. Brown, M. S. McFly,        |
 | J. Wilkins, B-C. Shih, P. J. P. Byrne,          |
 | R. J. Maurer, J. C. Womack, J. Dziedzic,        |
 | A. Bartok-Partay, L. LeBlanc, T. K. Stenczel,   |
 | J. Kermode, S. Sturniolo, B. Shi, B. Durham     |
 | M. Evans, M. J. Smith                           |
 |                                                 |
 | Copyright (c) 2000 - 2021                       |
 |                                                 |
 |     Distributed under license from Cambridge    |
 |     Enterprise for academic use only.           |
 |                                                 |
 | Please cite                                     |
 |                                                 |
 |     "First principles methods using CASTEP"     |
 |                                                 |
 |         Zeitschrift fuer Kristallographie       |
 |           220(5-6) pp. 567-570 (2005)           |
 |                                                 |
 | S. J. Clark, M. D. Segall, C. J. Pickard,       |
 | P. J. Hasnip, M. J. Probert, K. Refson,         |
 | M. C. Payne                                     |
 |                                                 |
 |       in all publications arising from          |
 |              your use of CASTEP                 |
 |                                                 |
 +-------------------------------------------------+
 |                                                 |
 |              http://www.castep.org              |
 |                                                 |
 +-------------------------------------------------+
 
 
 
 Compiled for linux_x86_64_ifort on Wed, 18 Jan 2023 15:42:19 +0000
 from code version b807d1bba+  Castep221_branch  Wed Sep 14 11:18:35 2022 +0100
 Compiler: Intel Fortran 19.0.5.281; Optimisation: fast
 MATHLIBS: Intel MKL(2019.0.5) (LAPACK version 3.7.0)
 FFT Lib : mkl
 Fundamental constants values: CODATA 2014
 
 Run started: Thu, 27 Apr 2023 01:22:15 +0100
 
 Atomic calculation performed for Al: 1s2 2s2 2p6 3s2 3p1
 
 Converged in 52 iterations to an ae energy of -6606.982 eV
 
   ============================================================                
   | Pseudopotential Report - Date of generation 27-04-2023   |                
   ------------------------------------------------------------                
   | Element: Al Ionic charge:  3.00 Level of theory: RPBE    |                
   | Atomic Solver: Koelling-Harmon                           |                
   |                                                          |                
   |               Reference Electronic Structure             |                
   |         Orbital         Occupation         Energy        |                
   |            3s              2.000           -0.284        |                
   |            3p              1.000           -0.100        |                
   |                                                          |                
   |                 Pseudopotential Definition               |                
   |        Beta     l      e      Rc     scheme   norm       |                
   |          1      0   -0.284   2.192     qc      0         |                
   |          2      0    0.250   2.192     qc      0         |                
   |          3      1   -0.100   2.192     qc      0         |                
   |          4      1    0.250   2.192     qc      0         |                
   |          5      2    0.000   2.000     qc      0         |                
   |          6      2    0.250   2.000     qc      0         |                
   |         loc     3    0.000   2.192     pn      0         |                
   |                                                          |                
   | Augmentation charge Rinner = 1.398                       |                
   | Partial core correction Rc = 1.398                       |                
   ------------------------------------------------------------                
   | "3|2.2|2.2|1.4|4|5|5|30:31:32U2U2"                       |                
   ------------------------------------------------------------                
   |      Author: Chris J. Pickard, Cambridge University      |                
   ============================================================                
 
 Atomic calculation performed for Ni: 1s2 2s2 2p6 3s2 3p6 3d8 4s2
 
 Converged in 109 iterations to an ae energy of -41381.414 eV
 
   ============================================================                
   | Pseudopotential Report - Date of generation 27-04-2023   |                
   ------------------------------------------------------------                
   | Element: Ni Ionic charge: 10.00 Level of theory: RPBE    |                
   | Atomic Solver: Koelling-Harmon                           |                
   |                                                          |                
   |               Reference Electronic Structure             |                
   |         Orbital         Occupation         Energy        |                
   |            3d              8.000           -0.324        |                
   |            4s              2.000           -0.204        |                
   |                                                          |                
   |                 Pseudopotential Definition               |                
   |        Beta     l      e      Rc     scheme   norm       |                
   |          1      0   -0.204   2.401     qc      0         |                
   |          2      0    0.250   2.401     qc      0         |                
   |          3      1    0.000   2.401     qc      0         |                
   |          4      1    0.250   2.401     qc      0         |                
   |          5      2   -0.324   1.999     qc      0         |                
   |          6      2    0.250   1.999     qc      0         |                
   |         loc     3    0.000   2.401     pn      0         |                
   |                                                          |                
   | Augmentation charge Rinner = 1.001                       |                
   | Partial core correction Rc = 1.001                       |                
   ------------------------------------------------------------                
   | "3|2.4|2.4|1.0|8|9|10|40:41:32U2U2(qc=5.5)"              |                
   ------------------------------------------------------------                
   |      Author: Chris J. Pickard, Cambridge University      |                
   ============================================================                
 
 Pseudo atomic calculation performed for Al 3s2 3p1
 
 Converged in 13 iterations to a total energy of -107.6593 eV
 
 Pseudo atomic calculation performed for Ni 3d8 4s2
 
 Converged in 41 iterations to a total energy of -1369.7890 eV
 Calculation parallelised over 128 processes.
 Data is distributed by G-vector(128-way)

 ************************************ Title ************************************
 

 ***************************** General Parameters ******************************
  
 output verbosity                               : normal  (1)
 write checkpoint data to                       : castep.check
 type of calculation                            : geometry optimization
 stress calculation                             : off
 density difference calculation                 : off
 electron localisation func (ELF) calculation   : off
 Hirshfeld analysis                             : off
 polarisation (Berry phase) analysis            : off
 molecular orbital projected DOS                : off
 deltaSCF calculation                           : off
 unlimited duration calculation
 timing information                             : on
 memory usage estimate                          : on
 write extra output files                       : on
 write final potential to formatted file        : off
 write final density to formatted file          : off
 write BibTeX reference list                    : on
 write OTFG pseudopotential files               : on
 write electrostatic potential file             : on
 write bands file                               : on
 checkpoint writing                             : both castep_bin and check files
  
 output         length unit                     : A
 output           mass unit                     : amu
 output           time unit                     : ps
 output         charge unit                     : e
 output           spin unit                     : hbar/2
 output         energy unit                     : eV
 output          force unit                     : eV/A
 output       velocity unit                     : A/ps
 output       pressure unit                     : GPa
 output     inv_length unit                     : 1/A
 output      frequency unit                     : cm-1
 output force constant unit                     : eV/A**2
 output         volume unit                     : A**3
 output   IR intensity unit                     : (D/A)**2/amu
 output         dipole unit                     : D
 output         efield unit                     : eV/A/e
 output        entropy unit                     : J/mol/K
 output    efield chi2 unit                     : pm/V
  
 wavefunctions paging                           : none
 random number generator seed                   : randomised (12217704)
 data distribution                              : optimal for this architecture
 optimization strategy                          : maximize speed(+++)

 *********************** Exchange-Correlation Parameters ***********************
  
 using functional                               : revised Perdew Burke Ernzerhof
 relativistic treatment                         : Koelling-Harmon
 DFT+D: Semi-empirical dispersion correction    : off

 ************************* Pseudopotential Parameters **************************
  
 pseudopotential representation                 : reciprocal space
 <beta|phi> representation                      : reciprocal space
 spin-orbit coupling                            : off

 **************************** Basis Set Parameters *****************************
  
 plane wave basis set cut-off                   :   900.0000   eV
 size of standard grid                          :     1.7500
 size of   fine   gmax                          :    26.8966   1/A
 finite basis set correction                    : none

 **************************** Electronic Parameters ****************************
  
 number of  electrons                           :  2046.    
 net charge of system                           :  0.000    
 treating system as non-spin-polarized
 number of bands                                :       1135

 ********************* Electronic Minimization Parameters **********************
  
 Method: Treating system as metallic with density mixing treatment of electrons,
         and number of  SD  steps               :          1
         and number of  CG  steps               :          4
  
 total energy / atom convergence tol.           : 0.1000E-05   eV
 eigen-energy convergence tolerance             : 0.2247E-06   eV
 max force / atom convergence tol.              : ignored
 convergence tolerance window                   :          3   cycles
 max. number of SCF cycles                      :        200
 number of fixed-spin iterations                :         10
 smearing scheme                                : Gaussian
 smearing width                                 : 0.2000       eV
 Fermi energy convergence tolerance             : 0.2721E-13   eV
 periodic dipole correction                     : NONE
 periodically dump wavefunctions to             : castep.wvfn
 dump wavefunctions every                       :          1   SCF cycles

 ************************** Density Mixing Parameters **************************
  
 density-mixing scheme                          : Pulay
 max. length of mixing history                  :         20
 charge density mixing amplitude                : 0.8000    
 cut-off energy for mixing                      :  900.0       eV

 *********************** Population Analysis Parameters ************************
  
 Population analysis with cutoff                :  3.000       A
 Population analysis output                     : summary and pdos components

 ********************** Geometry Optimization Parameters ***********************
  
 optimization method                            : LBFGS
 max. no. of LBFGS updates                      : unbounded
 variable cell method                           : fixed basis quality
 max. number of steps                           :         30
 estimated bulk modulus                         :  500.0       GPa
 estimated <frequency>                          :  1668.       cm-1
 geom line minimiser                            : on
 with line minimiser tolerance                  :     0.4000
 total energy convergence tolerance             : 0.2000E-04   eV/atom
        max ionic |force| tolerance             : 0.5000E-01   eV/A
 max ionic |displacement| tolerance             : 0.1000E-02   A
   max |stress component| tolerance             : 0.1000       GPa
 convergence tolerance window                   :          2   steps
 backup results every                           :          5   steps
 write geom trajectory file                     : on

 *******************************************************************************
  
 
                           -------------------------------
                                      Unit Cell
                           -------------------------------
        Real Lattice(A)                      Reciprocal Lattice(1/A)
    14.4648280     0.0000000     0.0000000        0.434376773   0.000000000   0.000000000
     0.0000000    14.4648280     0.0000000        0.000000000   0.434376773   0.000000000
     0.0000000     0.0000000    14.4648280        0.000000000   0.000000000   0.434376773
 
                       Lattice parameters(A)       Cell Angles
                    a =     14.464828          alpha =   90.000000
                    b =     14.464828          beta  =   90.000000
                    c =     14.464828          gamma =   90.000000
 
                       Current cell volume =          3026.494030       A**3
                                   density =             4.190844   AMU/A**3
                                           =             6.959059     g/cm^3
 
                           -------------------------------
                                     Cell Contents
                           -------------------------------
                         Total number of ions in cell =  255
                      Total number of species in cell =    2
                        Max number of any one species =  183
 
            xxxxxxxxxxxxxxxxxxxxxxxxxxxxxxxxxxxxxxxxxxxxxxxxxxxxxxxxxxxx
            x  Element    Atom        Fractional coordinates of atoms  x
            x            Number           u          v          w      x
            x----------------------------------------------------------x
            x  Al           1         0.943201   0.061916   0.691696   x 
            x  Al           2         0.942219   0.313747   0.691566   x 
            x  Al           3         0.946999   0.563308   0.685711   x 
            x  Al           4         0.943709   0.811344   0.690589   x 
            x  Al           5         0.941798   0.059967   0.939942   x 
            x  Al           6         0.941471   0.314529   0.939968   x 
            x  Al           7         0.948846   0.564889   0.941533   x 
            x  Al           8         0.945403   0.810350   0.937003   x 
            x  Al           9         0.943998   0.061187   0.189304   x 
            x  Al          10         0.942495   0.313353   0.187906   x 
            x  Al          11         0.946017   0.562499   0.193985   x 
            x  Al          12         0.948432   0.811558   0.196202   x 
            x  Al          13         0.944990   0.062398   0.440581   x 
            x  Al          14         0.943293   0.312463   0.441470   x 
            x  Al          15         0.943646   0.562119   0.440206   x 
            x  Al          16         0.944334   0.812367   0.439487   x 
            x  Al          17         0.700615   0.938541   0.561551   x 
            x  Al          18         0.428056   0.811063   0.437686   x 
            x  Al          19         0.563496   0.944807   0.435499   x 
            x  Al          20         0.175765   0.929804   0.808653   x 
            x  Al          21         0.193795   0.811210   0.439551   x 
            x  Al          22         0.171201   0.569870   0.439936   x 
            x  Al          23         0.314971   0.933666   0.682944   x 
            x  Al          24         0.053308   0.818788   0.563180   x 
            x  Al          25         0.694684   0.687809   0.566479   x 
            x  Al          26         0.565024   0.683486   0.433394   x 
            x  Al          27         0.311837   0.446901   0.692716   x 
            x  Al          28         0.174446   0.434324   0.565217   x 
            x  Al          29         0.699198   0.183651   0.563785   x 
            x  Al          30         0.446774   0.437258   0.558847   x 
            x  Al          31         0.310878   0.189990   0.451887   x 
            x  Al          32         0.569371   0.941410   0.200047   x 
            x  Al          33         0.061240   0.810650   0.308078   x 
            x  Al          34         0.436914   0.563607   0.194558   x 
            x  Al          35         0.308954   0.558744   0.321487   x 
            x  Al          36         0.696972   0.432518   0.322202   x 
            x  Al          37         0.564979   0.430367   0.197164   x 
            x  Al          38         0.309281   0.320312   0.312801   x 
            x  Al          39         0.071908   0.440400   0.189159   x 
            x  Al          40         0.700452   0.187660   0.316008   x 
            x  Al          41         0.689992   0.439834   0.559482   x 
            x  Al          42         0.557035   0.314341   0.057593   x 
            x  Al          43         0.554025   0.182846   0.193401   x 
            x  Al          44         0.309282   0.058930   0.311595   x 
            x  Al          45         0.064816   0.188487   0.201845   x 
            x  Al          46         0.690223   0.813901   0.938866   x 
            x  Al          47         0.811763   0.811333   0.072762   x 
            x  Al          48         0.559284   0.807778   0.810647   x 
            x  Al          49         0.440187   0.935697   0.067011   x 
            x  Al          50         0.313735   0.928953   0.934268   x 
            x  Al          51         0.804563   0.563690   0.065756   x 
            x  Al          52         0.442669   0.700197   0.068810   x 
            x  Al          53         0.572664   0.563612   0.059883   x 
            x  Al          54         0.314020   0.690976   0.939091   x 
            x  Al          55         0.696987   0.317103   0.930063   x 
            x  Al          56         0.188736   0.308126   0.937646   x 
            x  Al          57         0.319733   0.447850   0.942386   x 
            x  Al          58         0.057248   0.311213   0.060866   x 
            x  Al          59         0.697501   0.179442   0.065252   x 
            x  Al          60         0.556139   0.175881   0.931320   x 
            x  Al          61         0.189253   0.069267   0.936335   x 
            x  Al          62         0.061468   0.062664   0.066611   x 
            x  Al          63         0.559375   0.940786   0.682886   x 
            x  Al          64         0.807491   0.566871   0.815214   x 
            x  Al          65         0.563944   0.566107   0.813387   x 
            x  Al          66         0.315689   0.683223   0.679423   x 
            x  Al          67         0.181297   0.688261   0.816261   x 
            x  Al          68         0.052428   0.682972   0.689843   x 
            x  Al          69         0.556889   0.181515   0.692583   x 
            x  Al          70         0.554701   0.187777   0.440594   x 
            x  Al          71         0.695219   0.315117   0.700106   x 
            x  Al          72         0.319140   0.305993   0.809719   x 
            x  Ni           1         0.940547   0.186315   0.816188   x 
            x  Ni           2         0.940390   0.443686   0.814425   x 
            x  Ni           3         0.940586   0.684530   0.813793   x 
            x  Ni           4         0.941095   0.935919   0.814888   x 
            x  Ni           5         0.818682   0.186804   0.188570   x 
            x  Ni           6         0.938568   0.441279   0.066314   x 
            x  Ni           7         0.939072   0.687286   0.067740   x 
            x  Ni           8         0.940296   0.932964   0.066025   x 
            x  Ni           9         0.940816   0.187877   0.314157   x 
            x  Ni          10         0.940162   0.436711   0.315512   x 
            x  Ni          11         0.942142   0.686487   0.317292   x 
            x  Ni          12         0.942773   0.937738   0.315998   x 
            x  Ni          13         0.940001   0.188338   0.567149   x 
            x  Ni          14         0.940893   0.437254   0.564865   x 
            x  Ni          15         0.941301   0.687984   0.563602   x 
            x  Ni          16         0.940775   0.936377   0.565487   x 
            x  Ni          17         0.061935   0.062524   0.815214   x 
            x  Ni          18         0.062110   0.185902   0.690739   x 
            x  Ni          19         0.189180   0.187133   0.811080   x 
            x  Ni          20         0.308758   0.055891   0.811406   x 
            x  Ni          21         0.313310   0.186788   0.685061   x 
            x  Ni          22         0.185918   0.059493   0.689445   x 
            x  Ni          23         0.435493   0.182309   0.811457   x 
            x  Ni          24         0.562366   0.056769   0.811410   x 
            x  Ni          25         0.434792   0.059183   0.686318   x 
            x  Ni          26         0.688052   0.185162   0.814422   x 
            x  Ni          27         0.816258   0.059072   0.815698   x 
            x  Ni          28         0.688238   0.441176   0.812986   x 
            x  Ni          29         0.691566   0.061033   0.689008   x 
            x  Ni          30         0.062879   0.311622   0.817047   x 
            x  Ni          31         0.062349   0.438246   0.694865   x 
            x  Ni          32         0.192014   0.437395   0.817809   x 
            x  Ni          33         0.438684   0.315870   0.688715   x 
            x  Ni          34         0.187882   0.314271   0.692333   x 
            x  Ni          35         0.437356   0.441903   0.812927   x 
            x  Ni          36         0.688797   0.564583   0.937548   x 
            x  Ni          37         0.820319   0.315427   0.815584   x 
            x  Ni          38         0.816623   0.441081   0.689787   x 
            x  Ni          39         0.564935   0.438025   0.688210   x 
            x  Ni          40         0.061150   0.562494   0.817551   x 
            x  Ni          41         0.313208   0.569402   0.814521   x 
            x  Ni          42         0.184801   0.564801   0.688868   x 
            x  Ni          43         0.438034   0.687762   0.810729   x 
            x  Ni          44         0.690074   0.562865   0.687824   x 
            x  Ni          45         0.563293   0.688475   0.684159   x 
            x  Ni          46         0.687240   0.690697   0.811559   x 
            x  Ni          47         0.817228   0.443201   0.939825   x 
            x  Ni          48         0.817100   0.687465   0.689374   x 
            x  Ni          49         0.056761   0.809882   0.813487   x 
            x  Ni          50         0.057781   0.937186   0.688126   x 
            x  Ni          51         0.182442   0.807641   0.686137   x 
            x  Ni          52         0.310407   0.807946   0.807380   x 
            x  Ni          53         0.181118   0.687570   0.565635   x 
            x  Ni          54         0.310958   0.810534   0.563426   x 
            x  Ni          55         0.436867   0.932743   0.810153   x 
            x  Ni          56         0.688679   0.815048   0.686336   x 
            x  Ni          57         0.438940   0.810838   0.682374   x 
            x  Ni          58         0.687225   0.933719   0.811897   x 
            x  Ni          59         0.815486   0.810256   0.814782   x 
            x  Ni          60         0.817298   0.936177   0.690745   x 
            x  Ni          61         0.565614   0.813546   0.556390   x 
            x  Ni          62         0.061727   0.186674   0.939811   x 
            x  Ni          63         0.185537   0.187664   0.065270   x 
            x  Ni          64         0.311402   0.060154   0.063017   x 
            x  Ni          65         0.314648   0.185963   0.937917   x 
            x  Ni          66         0.438732   0.184608   0.062593   x 
            x  Ni          67         0.564121   0.060695   0.065752   x 
            x  Ni          68         0.433805   0.055193   0.938453   x 
            x  Ni          69         0.818729   0.058288   0.064536   x 
            x  Ni          70         0.815400   0.186006   0.938384   x 
            x  Ni          71         0.691166   0.059309   0.938196   x 
            x  Ni          72         0.063634   0.437391   0.939761   x 
            x  Ni          73         0.189070   0.437820   0.060642   x 
            x  Ni          74         0.313852   0.314092   0.062447   x 
            x  Ni          75         0.442078   0.442392   0.067675   x 
            x  Ni          76         0.435663   0.312785   0.937060   x 
            x  Ni          77         0.561696   0.438535   0.936674   x 
            x  Ni          78         0.561991   0.311272   0.815441   x 
            x  Ni          79         0.686023   0.433299   0.064108   x 
            x  Ni          80         0.939106   0.187175   0.063582   x 
            x  Ni          81         0.814656   0.313569   0.061926   x 
            x  Ni          82         0.062488   0.563280   0.065267   x 
            x  Ni          83         0.061444   0.687684   0.941256   x 
            x  Ni          84         0.188449   0.689941   0.063223   x 
            x  Ni          85         0.316833   0.567932   0.066044   x 
            x  Ni          86         0.188838   0.565130   0.940806   x 
            x  Ni          87         0.438965   0.813167   0.938975   x 
            x  Ni          88         0.441891   0.569745   0.942407   x 
            x  Ni          89         0.687791   0.690770   0.067576   x 
            x  Ni          90         0.815900   0.688838   0.941868   x 
            x  Ni          91         0.563821   0.691894   0.939646   x 
            x  Ni          92         0.060833   0.814573   0.065213   x 
            x  Ni          93         0.061951   0.938912   0.940993   x 
            x  Ni          94         0.187392   0.938444   0.061340   x 
            x  Ni          95         0.312832   0.813774   0.065909   x 
            x  Ni          96         0.185859   0.812394   0.938105   x 
            x  Ni          97         0.567667   0.817226   0.068038   x 
            x  Ni          98         0.563018   0.936429   0.937653   x 
            x  Ni          99         0.689387   0.938378   0.067275   x 
            x  Ni         100         0.815665   0.932748   0.940627   x 
            x  Ni         101         0.063654   0.060645   0.315152   x 
            x  Ni         102         0.193707   0.188786   0.318058   x 
            x  Ni         103         0.188065   0.061748   0.440087   x 
            x  Ni         104         0.312917   0.188306   0.188598   x 
            x  Ni         105         0.186935   0.062759   0.188930   x 
            x  Ni         106         0.435777   0.059505   0.190072   x 
            x  Ni         107         0.820509   0.062006   0.314820   x 
            x  Ni         108         0.692281   0.064550   0.192329   x 
            x  Ni         109         0.063008   0.314110   0.315769   x 
            x  Ni         110         0.185387   0.441307   0.321377   x 
            x  Ni         111         0.310718   0.440132   0.189116   x 
            x  Ni         112         0.186670   0.313387   0.187745   x 
            x  Ni         113         0.436293   0.436284   0.316557   x 
            x  Ni         114         0.436624   0.312982   0.188629   x 
            x  Ni         115         0.564425   0.305808   0.315518   x 
            x  Ni         116         0.818970   0.312179   0.313811   x 
            x  Ni         117         0.814211   0.436937   0.189564   x 
            x  Ni         118         0.688185   0.306752   0.187788   x 
            x  Ni         119         0.055426   0.563988   0.311039   x 
            x  Ni         120         0.061560   0.687875   0.185940   x 
            x  Ni         121         0.185591   0.688010   0.313701   x 
            x  Ni         122         0.314241   0.687599   0.190632   x 
            x  Ni         123         0.188775   0.565193   0.190074   x 
            x  Ni         124         0.436800   0.686383   0.316206   x 
            x  Ni         125         0.565709   0.558321   0.313667   x 
            x  Ni         126         0.563819   0.687164   0.193195   x 
            x  Ni         127         0.690628   0.686543   0.316005   x 
            x  Ni         128         0.817264   0.561709   0.314214   x 
            x  Ni         129         0.815881   0.686197   0.192177   x 
            x  Ni         130         0.688702   0.558936   0.192444   x 
            x  Ni         131         0.059758   0.937923   0.188450   x 
            x  Ni         132         0.185700   0.935383   0.313557   x 
            x  Ni         133         0.310369   0.812540   0.313744   x 
            x  Ni         134         0.312128   0.937189   0.188614   x 
            x  Ni         135         0.186842   0.812126   0.188724   x 
            x  Ni         136         0.437361   0.938439   0.316185   x 
            x  Ni         137         0.563332   0.813440   0.319990   x 
            x  Ni         138         0.440604   0.815693   0.194012   x 
            x  Ni         139         0.691877   0.940232   0.318982   x 
            x  Ni         140         0.818150   0.811912   0.314299   x 
            x  Ni         141         0.816482   0.936845   0.192438   x 
            x  Ni         142         0.689871   0.813882   0.195282   x 
            x  Ni         143         0.062026   0.060963   0.563241   x 
            x  Ni         144         0.064757   0.186274   0.438334   x 
            x  Ni         145         0.184888   0.189350   0.567337   x 
            x  Ni         146         0.309242   0.061366   0.565113   x 
            x  Ni         147         0.428553   0.188922   0.317207   x 
            x  Ni         148         0.184437   0.934983   0.564807   x 
            x  Ni         149         0.438053   0.190049   0.566280   x 
            x  Ni         150         0.566082   0.063930   0.562559   x 
            x  Ni         151         0.563355   0.068900   0.317095   x 
            x  Ni         152         0.432950   0.063957   0.439684   x 
            x  Ni         153         0.692759   0.307089   0.441867   x 
            x  Ni         154         0.820920   0.061615   0.565817   x 
            x  Ni         155         0.821126   0.187238   0.440655   x 
            x  Ni         156         0.693513   0.065793   0.439752   x 
            x  Ni         157         0.058331   0.310215   0.567000   x 
            x  Ni         158         0.051154   0.437195   0.440609   x 
            x  Ni         159         0.307618   0.550263   0.554423   x 
            x  Ni         160         0.186928   0.315466   0.441915   x 
            x  Ni         161         0.439360   0.562186   0.683709   x 
            x  Ni         162         0.570357   0.307981   0.569376   x 
            x  Ni         163         0.566569   0.433221   0.437239   x 
            x  Ni         164         0.433997   0.314843   0.440846   x 
            x  Ni         165         0.816223   0.186557   0.692856   x 
            x  Ni         166         0.818150   0.436663   0.441355   x 
            x  Ni         167         0.815217   0.313680   0.568986   x 
            x  Ni         168         0.054810   0.563373   0.565866   x 
            x  Ni         169         0.059147   0.695688   0.439265   x 
            x  Ni         170         0.309306   0.683093   0.441448   x 
            x  Ni         171         0.311025   0.324092   0.565950   x 
            x  Ni         172         0.440065   0.684512   0.557812   x 
            x  Ni         173         0.567633   0.563587   0.561152   x 
            x  Ni         174         0.438187   0.559675   0.437037   x 
            x  Ni         175         0.817271   0.563167   0.564842   x 
            x  Ni         176         0.817012   0.687813   0.439285   x 
            x  Ni         177         0.693187   0.563200   0.438800   x 
            x  Ni         178         0.061506   0.934909   0.436486   x 
            x  Ni         179         0.311464   0.938670   0.439949   x 
            x  Ni         180         0.439133   0.936783   0.559110   x 
            x  Ni         181         0.692609   0.812136   0.439402   x 
            x  Ni         182         0.818367   0.811639   0.564904   x 
            x  Ni         183         0.818893   0.937116   0.438577   x 
            xxxxxxxxxxxxxxxxxxxxxxxxxxxxxxxxxxxxxxxxxxxxxxxxxxxxxxxxxxxx
 
 
                         No user defined ionic velocities
 
                           -------------------------------
                                   Details of Species
                           -------------------------------
 
                               Mass of species in AMU
                                    Al   26.9815400
                                    Ni   58.6934000
 
                          Electric Quadrupole Moment (Barn)
                                    Al    0.1466000 Isotope 27
                                    Ni    0.1620000 Isotope 61
 
                          Files used for pseudopotentials:
                                    Al 3|2.2|2.2|1.4|4|5|5|30:31:32U2U2
                                    Ni 3|2.4|2.4|1.0|8|9|10|40:41:32U2U2(qc=5.5)
 
                           -------------------------------
                              k-Points For BZ Sampling
                           -------------------------------
                       MP grid size for SCF calculation is  1  1  1
                            with an offset of   0.000  0.000  0.000
                       Number of kpoints used =             1
 
                           -------------------------------
                               Symmetry and Constraints
                           -------------------------------
 
                      Maximum deviation from symmetry =  0.00000         ANG
 
                      Number of symmetry operations   =           1
                      Number of ionic constraints     =           3
                      Point group of crystal =     1: C1, 1, 1
                      Space group of crystal =     1: P1, P 1
 
             Set iprint > 1 for details on symmetry rotations/translations
 
                         Centre of mass is constrained
             Set iprint > 1 for details of linear ionic constraints
 
                         Number of cell constraints= 6
                         Cell constraints are:  0 0 0 0 0 0
 
                         External pressure/stress (GPa)
                          0.00000   0.00000   0.00000
                                    0.00000   0.00000
                                              0.00000
 
+---------------- MEMORY AND SCRATCH DISK ESTIMATES PER PROCESS --------------+
|                                                     Memory          Disk    |
| Baseline code, static data and system overhead      855.0 MB         0.0 MB |
| BLAS internal memory storage                          0.0 MB         0.0 MB |
| Model and support data                              335.0 MB         0.0 MB |
| Electronic energy minimisation requirements          66.7 MB         0.0 MB |
| Force calculation requirements                        1.7 MB         0.0 MB |
|                                               ----------------------------- |
| Approx. total storage required per process         1256.7 MB         0.0 MB |
|                                                                             |
| Requirements will fluctuate during execution and may exceed these estimates |
+-----------------------------------------------------------------------------+
Calculating approximate eigenstates for fixed initial Hamiltonian
Cut-off for approx. calculation is  550.359 eV
Resetting cut-off to  900.000 eV
Calculating total energy with cut-off of  900.000 eV.
------------------------------------------------------------------------ <-- SCF
SCF loop      Energy           Fermi           Energy gain       Timer   <-- SCF
                               energy          per atom          (sec)   <-- SCF
------------------------------------------------------------------------ <-- SCF
Initial  -2.60455117E+005  0.00000000E+000                      1402.55  <-- SCF
      1  -2.59954751E+005  3.32315610E+000  -1.96222118E+000    1433.61  <-- SCF
      2  -2.60103198E+005  3.41857198E+000   5.82144463E-001    1465.84  <-- SCF
      3  -2.61300231E+005  9.09569619E+000   4.69424806E+000    1514.00  <-- SCF
      4  -2.61358535E+005  9.07575234E+000   2.28643125E-001    1555.52  <-- SCF
      5  -2.60191259E+005  6.59849238E+000  -4.57755146E+000    1612.24  <-- SCF
      6  -2.60383708E+005  6.60953925E+000   7.54701277E-001    1654.78  <-- SCF
      7  -2.60049786E+005  4.92801963E+000  -1.30949844E+000    1691.49  <-- SCF
      8  -2.60004503E+005  4.60223817E+000  -1.77581087E-001    1749.43  <-- SCF
      9  -2.59999861E+005  4.58595989E+000  -1.82017913E-002    1782.13  <-- SCF
     10  -2.60000771E+005  4.65716486E+000   3.56532190E-003    1817.10  <-- SCF
     11  -2.59995115E+005  4.63546123E+000  -2.21795642E-002    1849.04  <-- SCF
     12  -2.59996603E+005  4.63422686E+000   5.83544421E-003    1881.08  <-- SCF
     13  -2.59996886E+005  4.60083172E+000   1.11168097E-003    1928.05  <-- SCF
     14  -2.59994610E+005  4.57336736E+000  -8.92526489E-003    1979.75  <-- SCF
     15  -2.59994550E+005  4.57872701E+000  -2.38660185E-004    2022.45  <-- SCF
     16  -2.59994413E+005  4.58596159E+000  -5.37331926E-004    2075.25  <-- SCF
     17  -2.59994087E+005  4.58409825E+000  -1.27604759E-003    2134.32  <-- SCF
     18  -2.59994099E+005  4.58419798E+000   4.57501181E-005    2172.49  <-- SCF
     19  -2.59994088E+005  4.58382062E+000  -4.17762029E-005    2205.05  <-- SCF
     20  -2.59994065E+005  4.58359365E+000  -9.04682210E-005    2237.69  <-- SCF
     21  -2.59994067E+005  4.58376062E+000   6.49923770E-006    2268.04  <-- SCF
     22  -2.59994066E+005  4.58411927E+000  -2.58328025E-006    2298.27  <-- SCF
     23  -2.59994064E+005  4.58427874E+000  -9.97253508E-006    2331.08  <-- SCF
     24  -2.59994064E+005  4.58430304E+000   6.03491298E-007    2366.50  <-- SCF
     25  -2.59994064E+005  4.58418544E+000  -1.88067901E-007    2394.56  <-- SCF
------------------------------------------------------------------------ <-- SCF
 
Final energy, E             =  -259989.8921900     eV
Final free energy (E-TS)    =  -259994.0636573     eV
(energies not corrected for finite basis set)
 
NB est. 0K energy (E-0.5TS)      =  -259991.9779237     eV
 

Writing analysis data to castep.castep_bin

Writing model to castep.check
 
+---------------- MEMORY AND SCRATCH DISK ESTIMATES PER PROCESS --------------+
|                                                     Memory          Disk    |
| Model and support data                              345.7 MB         0.0 MB |
| Electronic energy minimisation requirements          66.7 MB         0.0 MB |
| Geometry minimisation requirements                   80.9 MB         0.0 MB |
|                                               ----------------------------- |
| Approx. total storage required per process          493.3 MB         0.0 MB |
|                                                                             |
| Requirements will fluctuate during execution and may exceed these estimates |
+-----------------------------------------------------------------------------+
 
 
 ************************************** Forces **************************************
 *                                                                                  *
 *                           Cartesian components (eV/A)                            *
 * -------------------------------------------------------------------------------- *
 *                         x                    y                    z              *
 *                                                                                  *
 * Al              1     -0.42652              0.13037             -0.10158         *
 * Al              2     -0.22345             -0.09671              0.09667         *
 * Al              3     -2.36147             -1.99184              0.27341         *
 * Al              4     -2.76502              1.20056              1.07873         *
 * Al              5     -1.15230              0.01154             -0.90848         *
 * Al              6     -1.51626              0.03307             -1.35130         *
 * Al              7     -0.33379             -0.11957              0.10210         *
 * Al              8     -0.42092              0.09366              0.03072         *
 * Al              9     -2.20776             -0.64645              1.06217         *
 * Al             10     -2.49851              0.29320              1.08705         *
 * Al             11     -1.45051              0.61601             -0.34572         *
 * Al             12     -2.32383              0.02060             -1.73940         *
 * Al             13     -0.48407              0.06883             -0.02878         *
 * Al             14     -0.63240             -0.43402             -0.06275         *
 * Al             15     -0.89497              0.27184             -0.10245         *
 * Al             16     -2.84561              0.28594             -0.75582         *
 * Al             17      0.20066              0.02775              0.10762         *
 * Al             18     -0.05552              0.12207              0.05726         *
 * Al             19      0.03006             -0.07196             -0.11383         *
 * Al             20     -0.14190              0.00198             -0.14799         *
 * Al             21      0.32930              0.12924              0.05156         *
 * Al             22      0.15923             -0.03264              0.01663         *
 * Al             23      0.02800              0.05836             -0.11811         *
 * Al             24      2.81100             -0.03744              0.28521         *
 * Al             25      0.16577              0.03668              0.20203         *
 * Al             26     -0.01318             -0.24030             -0.09521         *
 * Al             27      0.01281              0.03733             -0.12507         *
 * Al             28      0.14747             -0.10055             -0.01100         *
 * Al             29      0.27257             -0.25438             -0.05501         *
 * Al             30     -0.25460             -0.00859             -0.02856         *
 * Al             31     -0.10483              0.14036              0.06338         *
 * Al             32      0.14220             -0.16715             -0.05701         *
 * Al             33      2.46888              0.10123              1.11502         *
 * Al             34     -0.12685             -0.07936              0.01804         *
 * Al             35      0.02538              0.04329              0.00185         *
 * Al             36      0.14100              0.17462             -0.04205         *
 * Al             37     -0.00740             -0.02129              0.03816         *
 * Al             38      0.02452              0.04430              0.08551         *
 * Al             39      0.97411              0.08590              0.57908         *
 * Al             40      0.06218             -0.10099             -0.10558         *
 * Al             41      0.11220              0.15574              0.06583         *
 * Al             42     -0.38749              0.29688              0.14052         *
 * Al             43     -0.23144             -0.10034              0.07223         *
 * Al             44      0.14953             -0.08893             -0.01590         *
 * Al             45      1.78739              0.02319              0.19885         *
 * Al             46     -0.25548             -0.06316             -0.02200         *
 * Al             47     -0.08004              0.13904              0.15050         *
 * Al             48     -0.29984              0.05899             -0.02492         *
 * Al             49     -0.03494              0.03559             -0.05314         *
 * Al             50      0.03167             -0.08825              0.11653         *
 * Al             51     -0.15888             -0.01828              0.03649         *
 * Al             52     -0.02576              0.14002             -0.08090         *
 * Al             53      0.16200             -0.08082             -0.18299         *
 * Al             54      0.14127             -0.01278              0.18211         *
 * Al             55      0.09393              0.37592             -0.22300         *
 * Al             56     -0.04757             -0.14812              0.05770         *
 * Al             57      0.13707              0.16666              0.12204         *
 * Al             58      2.12038              0.00404              0.10021         *
 * Al             59      0.50725             -0.27276              0.04131         *
 * Al             60     -0.15106             -0.22259             -0.24989         *
 * Al             61      0.05746              0.22145              0.02481         *
 * Al             62      1.60801             -0.38910             -0.37380         *
 * Al             63     -0.02828              0.06933              0.09705         *
 * Al             64     -0.09070             -0.18892             -0.16999         *
 * Al             65     -0.14061             -0.00656             -0.19748         *
 * Al             66      0.04359             -0.05401             -0.23358         *
 * Al             67      0.01614             -0.04583              0.04055         *
 * Al             68      2.99928              0.53986             -0.16329         *
 * Al             69     -0.10795             -0.01055              0.20063         *
 * Al             70     -0.15334              0.17634              0.08478         *
 * Al             71     -0.07117              0.11483              0.16708         *
 * Al             72      0.10189             -0.31851             -0.21415         *
 * Ni              1     -0.17723              0.10397             -0.00417         *
 * Ni              2     -0.31073             -0.12228              0.26403         *
 * Ni              3     -0.68244             -0.20217              0.21661         *
 * Ni              4     -0.33246              0.13134              0.15868         *
 * Ni              5      0.14193              0.05002             -0.04721         *
 * Ni              6      0.18972             -0.31425              0.19188         *
 * Ni              7     -0.22903              0.03715             -0.15524         *
 * Ni              8     -0.44802              0.19724             -0.09554         *
 * Ni              9     -0.15668             -0.04703             -0.07189         *
 * Ni             10     -0.39450             -0.07598             -0.74976         *
 * Ni             11     -0.58700              0.49684             -0.39549         *
 * Ni             12     -0.39187             -0.31525             -0.24523         *
 * Ni             13     -0.14762             -0.21916             -0.07207         *
 * Ni             14     -0.49991             -0.11716              0.49884         *
 * Ni             15     -0.56516              0.65590              0.32681         *
 * Ni             16     -0.67614              0.06838             -0.31704         *
 * Ni             17      0.45296              0.04917             -0.05198         *
 * Ni             18      0.37185              0.14385              0.11424         *
 * Ni             19     -0.14675             -0.02748             -0.07494         *
 * Ni             20      0.00476              0.02276              0.20682         *
 * Ni             21     -0.26349             -0.00116              0.05138         *
 * Ni             22      0.03489              0.11600             -0.08349         *
 * Ni             23     -0.05275             -0.12099              0.11760         *
 * Ni             24      0.09168             -0.11762              0.12540         *
 * Ni             25     -0.01914              0.22429             -0.05530         *
 * Ni             26      0.23537             -0.13088              0.11326         *
 * Ni             27     -0.32771              0.16610             -0.08278         *
 * Ni             28      0.04342             -0.01216              0.21788         *
 * Ni             29      0.03320             -0.07498              0.07830         *
 * Ni             30      0.29196              0.14757             -0.28989         *
 * Ni             31      0.24756             -0.22369              0.00602         *
 * Ni             32      0.01277             -0.05466              0.18460         *
 * Ni             33     -0.07506              0.08168             -0.17962         *
 * Ni             34      0.08870              0.01032             -0.13673         *
 * Ni             35      0.04068             -0.37250              0.10096         *
 * Ni             36     -0.21020              0.04621              0.07501         *
 * Ni             37     -0.03265             -0.07134             -0.11968         *
 * Ni             38     -0.09150             -0.00169              0.02103         *
 * Ni             39      0.15725             -0.11452              0.14127         *
 * Ni             40      0.83736             -0.08789             -0.50439         *
 * Ni             41     -0.09205              0.01541             -0.05592         *
 * Ni             42      0.09730             -0.00497              0.18680         *
 * Ni             43      0.00727             -0.08969              0.05122         *
 * Ni             44     -0.20927              0.05062             -0.08321         *
 * Ni             45      0.05229             -0.15323             -0.08984         *
 * Ni             46      0.23604              0.19025              0.04990         *
 * Ni             47     -0.02103              0.13586             -0.06050         *
 * Ni             48      0.01694              0.00438              0.13751         *
 * Ni             49      0.75790             -0.14977             -0.15167         *
 * Ni             50      0.49421              0.03805             -0.10689         *
 * Ni             51      0.13080             -0.09149              0.12187         *
 * Ni             52      0.15893              0.11860              0.16949         *
 * Ni             53      0.01787             -0.04286             -0.27053         *
 * Ni             54      0.05079             -0.06377              0.15847         *
 * Ni             55      0.20527              0.24282             -0.02277         *
 * Ni             56      0.03310              0.06212              0.15353         *
 * Ni             57      0.22862             -0.10055             -0.03520         *
 * Ni             58      0.16149              0.06193              0.09078         *
 * Ni             59     -0.03043              0.05211             -0.25775         *
 * Ni             60     -0.05987             -0.05860              0.17969         *
 * Ni             61     -0.17003             -0.02988              0.07150         *
 * Ni             62      0.15324              0.02085             -0.20592         *
 * Ni             63      0.15378              0.07297              0.22658         *
 * Ni             64      0.11145             -0.00810              0.08269         *
 * Ni             65      0.06854              0.09168              0.12358         *
 * Ni             66     -0.07858              0.14585             -0.00494         *
 * Ni             67      0.14778              0.10825             -0.15734         *
 * Ni             68     -0.02037              0.05057             -0.11728         *
 * Ni             69     -0.15923             -0.13123              0.03033         *
 * Ni             70     -0.03403             -0.07642             -0.16621         *
 * Ni             71     -0.19662             -0.12481              0.03819         *
 * Ni             72      0.26109             -0.26660              0.11811         *
 * Ni             73     -0.01404             -0.05902              0.12016         *
 * Ni             74      0.00587             -0.08291              0.02038         *
 * Ni             75      0.15688             -0.00375              0.23438         *
 * Ni             76      0.01086              0.04853              0.02830         *
 * Ni             77      0.04640             -0.07747              0.00920         *
 * Ni             78     -0.20159              0.15728             -0.12906         *
 * Ni             79      0.05578             -0.12647             -0.00253         *
 * Ni             80      0.20169             -0.06121              0.51685         *
 * Ni             81     -0.10495              0.08363              0.22267         *
 * Ni             82      0.71275              0.00115              0.05477         *
 * Ni             83      0.36759              0.17311              0.34212         *
 * Ni             84     -0.22842             -0.20067              0.27186         *
 * Ni             85     -0.29978              0.17296              0.10015         *
 * Ni             86     -0.04519             -0.02621             -0.03079         *
 * Ni             87     -0.00851             -0.05102             -0.04899         *
 * Ni             88     -0.08485             -0.00368             -0.05517         *
 * Ni             89      0.10864              0.13338              0.04759         *
 * Ni             90     -0.21387             -0.01266             -0.03570         *
 * Ni             91      0.29613             -0.06354              0.01544         *
 * Ni             92      0.75521             -0.25043             -0.18172         *
 * Ni             93      0.34931              0.15859              0.12504         *
 * Ni             94     -0.01092              0.10145              0.21590         *
 * Ni             95     -0.20868             -0.03840              0.11085         *
 * Ni             96      0.03116              0.02759              0.11407         *
 * Ni             97     -0.11897              0.03088              0.19200         *
 * Ni             98      0.26004              0.06656             -0.07931         *
 * Ni             99      0.32151              0.14717             -0.20931         *
 * Ni            100     -0.06717             -0.03318              0.06452         *
 * Ni            101      0.39856              0.07314             -0.07711         *
 * Ni            102     -0.10027              0.01828              0.08767         *
 * Ni            103     -0.06312              0.06471              0.01306         *
 * Ni            104     -0.13599             -0.04954             -0.28394         *
 * Ni            105      0.05353             -0.04376             -0.14746         *
 * Ni            106      0.04288              0.12263             -0.13323         *
 * Ni            107     -0.35043             -0.06023              0.13765         *
 * Ni            108     -0.00466              0.01215              0.07863         *
 * Ni            109      0.33472              0.07367             -0.10928         *
 * Ni            110     -0.14076             -0.00753             -0.04945         *
 * Ni            111      0.00249              0.06943              0.02927         *
 * Ni            112     -0.00676             -0.03967             -0.17928         *
 * Ni            113      0.18172              0.11762             -0.05338         *
 * Ni            114      0.14463             -0.06767             -0.12514         *
 * Ni            115     -0.10892              0.08664              0.14837         *
 * Ni            116     -0.08326             -0.06598              0.15597         *
 * Ni            117     -0.02915              0.01385             -0.18230         *
 * Ni            118     -0.10795              0.03353             -0.23887         *
 * Ni            119      1.20352             -0.01866              0.35045         *
 * Ni            120      0.65203              0.05604              0.24465         *
 * Ni            121     -0.04247             -0.02058             -0.06310         *
 * Ni            122     -0.14841              0.15442              0.17889         *
 * Ni            123      0.15517              0.05831             -0.24098         *
 * Ni            124     -0.08556              0.14256             -0.05481         *
 * Ni            125      0.00167             -0.08670              0.04829         *
 * Ni            126     -0.07565             -0.11674             -0.28953         *
 * Ni            127      0.26114              0.03910             -0.30035         *
 * Ni            128     -0.22156              0.09433              0.20192         *
 * Ni            129     -0.15879             -0.05963              0.08802         *
 * Ni            130     -0.22654              0.14771              0.22639         *
 * Ni            131      0.91216              0.01225              0.01287         *
 * Ni            132     -0.08319             -0.01136             -0.03571         *
 * Ni            133      0.11220              0.00819             -0.33412         *
 * Ni            134     -0.32666             -0.28109              0.08833         *
 * Ni            135      0.17576              0.12626             -0.24419         *
 * Ni            136     -0.12958             -0.03870              0.00416         *
 * Ni            137      0.04685             -0.14529              0.05667         *
 * Ni            138     -0.10164              0.02710              0.18876         *
 * Ni            139      0.28882             -0.12517             -0.15990         *
 * Ni            140     -0.29999              0.05450              0.17296         *
 * Ni            141     -0.09579              0.00293             -0.03904         *
 * Ni            142     -0.12849             -0.14263              0.10500         *
 * Ni            143      0.45475              0.08225              0.25356         *
 * Ni            144      0.26322              0.12323              0.13972         *
 * Ni            145     -0.11422             -0.05639             -0.04440         *
 * Ni            146      0.21659             -0.10488             -0.01472         *
 * Ni            147     -0.10054             -0.00271             -0.01539         *
 * Ni            148     -0.02376              0.17538             -0.21740         *
 * Ni            149     -0.17293             -0.08136              0.06671         *
 * Ni            150     -0.11539             -0.03194              0.02147         *
 * Ni            151     -0.03855              0.01615              0.03422         *
 * Ni            152      0.10400              0.04632              0.19185         *
 * Ni            153     -0.02794             -0.09908             -0.09071         *
 * Ni            154     -0.18501              0.12421             -0.05064         *
 * Ni            155     -0.00298              0.06613              0.10851         *
 * Ni            156      0.05888             -0.09392             -0.09628         *
 * Ni            157      0.56032             -0.02301             -0.04859         *
 * Ni            158      1.62956              0.03535             -0.29237         *
 * Ni            159     -0.00535              0.08289              0.02888         *
 * Ni            160     -0.10808             -0.23894             -0.15850         *
 * Ni            161      0.11518              0.10612              0.01396         *
 * Ni            162      0.19389             -0.22910             -0.04695         *
 * Ni            163     -0.18086              0.18305             -0.08973         *
 * Ni            164      0.23371             -0.04097             -0.15677         *
 * Ni            165     -0.00706              0.00819              0.07908         *
 * Ni            166      0.09685             -0.01320              0.11919         *
 * Ni            167     -0.22984             -0.07340             -0.19784         *
 * Ni            168      1.14935             -0.12545             -0.11348         *
 * Ni            169      0.53747              0.02689              0.01434         *
 * Ni            170      0.00397             -0.31136             -0.05734         *
 * Ni            171      0.01672             -0.01068              0.25427         *
 * Ni            172     -0.00916              0.03070              0.07570         *
 * Ni            173     -0.19771              0.09129              0.07398         *
 * Ni            174      0.25071             -0.12242              0.08087         *
 * Ni            175     -0.01013             -0.11996             -0.13194         *
 * Ni            176     -0.05965             -0.09644             -0.24167         *
 * Ni            177      0.09465              0.14085             -0.07973         *
 * Ni            178      0.72227             -0.26242              0.27283         *
 * Ni            179     -0.26388              0.10818              0.14493         *
 * Ni            180     -0.25391              0.13857             -0.09087         *
 * Ni            181      0.10286             -0.00105             -0.15564         *
 * Ni            182     -0.03265              0.02721             -0.14170         *
 * Ni            183      0.06022              0.05748             -0.18512         *
 *                                                                                  *
 ************************************************************************************
 LBFGS: finished iteration     0 with enthalpy= -2.59994064E+005 eV
  
 +-----------+-----------------+-----------------+------------+-----+ <-- LBFGS
 | Parameter |      value      |    tolerance    |    units   | OK? | <-- LBFGS
 +-----------+-----------------+-----------------+------------+-----+ <-- LBFGS
 |  dE/ion   |   0.000000E+000 |   2.000000E-005 |         eV | No  | <-- LBFGS
 |  |F|max   |   3.201617E+000 |   5.000000E-002 |       eV/A | No  | <-- LBFGS
 |  |dR|max  |   0.000000E+000 |   1.000000E-003 |          A | No  | <-- LBFGS
 +-----------+-----------------+-----------------+------------+-----+ <-- LBFGS
  

================================================================================
 Starting LBFGS iteration          1 ...
================================================================================
  
 +------------+-------------+-------------+-----------------+ <-- min LBFGS
 |    Step    |   lambda    |   F.delta'  |    enthalpy     | <-- min LBFGS
 +------------+-------------+-------------+-----------------+ <-- min LBFGS
 |  previous  |    0.000000 |    6.013313 |  -259994.063657 | <-- min LBFGS
 +------------+-------------+-------------+-----------------+ <-- min LBFGS
  

--------------------------------------------------------------------------------
 LBFGS: starting iteration         1 with trial guess (lambda=  1.000000)
--------------------------------------------------------------------------------
 
                           -------------------------------
                                     Cell Contents
                           -------------------------------
 
            xxxxxxxxxxxxxxxxxxxxxxxxxxxxxxxxxxxxxxxxxxxxxxxxxxxxxxxxxxxxxxxxx
            x  Element         Atom        Fractional coordinates of atoms  x
            x                 Number           u          v          w      x
            x---------------------------------------------------------------x
            x  Al                1         0.943143   0.061934   0.691682   x
            x  Al                2         0.942189   0.313734   0.691580   x
            x  Al                3         0.946678   0.563037   0.685749   x
            x  Al                4         0.943333   0.811507   0.690735   x
            x  Al                5         0.941641   0.059969   0.939818   x
            x  Al                6         0.941265   0.314534   0.939784   x
            x  Al                7         0.948801   0.564873   0.941546   x
            x  Al                8         0.945346   0.810363   0.937007   x
            x  Al                9         0.943698   0.061099   0.189448   x
            x  Al               10         0.942155   0.313393   0.188054   x
            x  Al               11         0.945820   0.562583   0.193938   x
            x  Al               12         0.948117   0.811561   0.195965   x
            x  Al               13         0.944924   0.062407   0.440577   x
            x  Al               14         0.943207   0.312404   0.441461   x
            x  Al               15         0.943525   0.562156   0.440192   x
            x  Al               16         0.943947   0.812406   0.439385   x
            x  Al               17         0.700642   0.938545   0.561565   x
            x  Al               18         0.428048   0.811079   0.437694   x
            x  Al               19         0.563500   0.944797   0.435483   x
            x  Al               20         0.175745   0.929804   0.808633   x
            x  Al               21         0.193840   0.811227   0.439558   x
            x  Al               22         0.171222   0.569865   0.439938   x
            x  Al               23         0.314975   0.933674   0.682928   x
            x  Al               24         0.053690   0.818783   0.563219   x
            x  Al               25         0.694707   0.687814   0.566507   x
            x  Al               26         0.565022   0.683454   0.433381   x
            x  Al               27         0.311838   0.446906   0.692699   x
            x  Al               28         0.174466   0.434311   0.565215   x
            x  Al               29         0.699236   0.183616   0.563778   x
            x  Al               30         0.446739   0.437257   0.558843   x
            x  Al               31         0.310864   0.190009   0.451896   x
            x  Al               32         0.569391   0.941387   0.200039   x
            x  Al               33         0.061575   0.810664   0.308229   x
            x  Al               34         0.436897   0.563596   0.194560   x
            x  Al               35         0.308957   0.558750   0.321487   x
            x  Al               36         0.696991   0.432542   0.322197   x
            x  Al               37         0.564978   0.430364   0.197169   x
            x  Al               38         0.309285   0.320318   0.312813   x
            x  Al               39         0.072040   0.440412   0.189237   x
            x  Al               40         0.700461   0.187646   0.315994   x
            x  Al               41         0.690007   0.439855   0.559491   x
            x  Al               42         0.556982   0.314382   0.057612   x
            x  Al               43         0.553994   0.182833   0.193411   x
            x  Al               44         0.309303   0.058918   0.311593   x
            x  Al               45         0.065058   0.188490   0.201872   x
            x  Al               46         0.690188   0.813893   0.938863   x
            x  Al               47         0.811753   0.811352   0.072783   x
            x  Al               48         0.559243   0.807786   0.810643   x
            x  Al               49         0.440182   0.935701   0.067004   x
            x  Al               50         0.313739   0.928941   0.934284   x
            x  Al               51         0.804541   0.563688   0.065761   x
            x  Al               52         0.442666   0.700216   0.068799   x
            x  Al               53         0.572686   0.563601   0.059858   x
            x  Al               54         0.314039   0.690974   0.939116   x
            x  Al               55         0.696999   0.317154   0.930032   x
            x  Al               56         0.188729   0.308106   0.937654   x
            x  Al               57         0.319751   0.447873   0.942402   x
            x  Al               58         0.057537   0.311214   0.060880   x
            x  Al               59         0.697570   0.179405   0.065258   x
            x  Al               60         0.556119   0.175851   0.931286   x
            x  Al               61         0.189261   0.069297   0.936339   x
            x  Al               62         0.061686   0.062611   0.066561   x
            x  Al               63         0.559371   0.940795   0.682899   x
            x  Al               64         0.807479   0.566845   0.815191   x
            x  Al               65         0.563925   0.566106   0.813360   x
            x  Al               66         0.315695   0.683216   0.679391   x
            x  Al               67         0.181299   0.688255   0.816267   x
            x  Al               68         0.052835   0.683046   0.689821   x
            x  Al               69         0.556875   0.181514   0.692610   x
            x  Al               70         0.554680   0.187801   0.440606   x
            x  Al               71         0.695210   0.315133   0.700129   x
            x  Al               72         0.319154   0.305950   0.809690   x
            x  Ni                1         0.940523   0.186329   0.816188   x
            x  Ni                2         0.940348   0.443670   0.814461   x
            x  Ni                3         0.940493   0.684502   0.813822   x
            x  Ni                4         0.941050   0.935937   0.814909   x
            x  Ni                5         0.818701   0.186810   0.188564   x
            x  Ni                6         0.938594   0.441237   0.066340   x
            x  Ni                7         0.939040   0.687291   0.067719   x
            x  Ni                8         0.940235   0.932991   0.066012   x
            x  Ni                9         0.940795   0.187871   0.314147   x
            x  Ni               10         0.940108   0.436701   0.315410   x
            x  Ni               11         0.942062   0.686554   0.317238   x
            x  Ni               12         0.942720   0.937695   0.315965   x
            x  Ni               13         0.939981   0.188308   0.567140   x
            x  Ni               14         0.940825   0.437238   0.564933   x
            x  Ni               15         0.941225   0.688073   0.563647   x
            x  Ni               16         0.940683   0.936386   0.565444   x
            x  Ni               17         0.061996   0.062531   0.815207   x
            x  Ni               18         0.062161   0.185922   0.690755   x
            x  Ni               19         0.189160   0.187129   0.811070   x
            x  Ni               20         0.308759   0.055894   0.811434   x
            x  Ni               21         0.313274   0.186788   0.685068   x
            x  Ni               22         0.185923   0.059508   0.689434   x
            x  Ni               23         0.435486   0.182292   0.811473   x
            x  Ni               24         0.562379   0.056753   0.811427   x
            x  Ni               25         0.434790   0.059214   0.686310   x
            x  Ni               26         0.688084   0.185144   0.814438   x
            x  Ni               27         0.816214   0.059094   0.815687   x
            x  Ni               28         0.688244   0.441174   0.813015   x
            x  Ni               29         0.691571   0.061023   0.689019   x
            x  Ni               30         0.062919   0.311642   0.817008   x
            x  Ni               31         0.062382   0.438216   0.694866   x
            x  Ni               32         0.192015   0.437388   0.817834   x
            x  Ni               33         0.438674   0.315881   0.688691   x
            x  Ni               34         0.187894   0.314272   0.692314   x
            x  Ni               35         0.437361   0.441853   0.812941   x
            x  Ni               36         0.688769   0.564590   0.937559   x
            x  Ni               37         0.820315   0.315417   0.815567   x
            x  Ni               38         0.816611   0.441080   0.689790   x
            x  Ni               39         0.564956   0.438009   0.688230   x
            x  Ni               40         0.061264   0.562482   0.817482   x
            x  Ni               41         0.313195   0.569404   0.814514   x
            x  Ni               42         0.184814   0.564801   0.688894   x
            x  Ni               43         0.438035   0.687750   0.810736   x
            x  Ni               44         0.690045   0.562872   0.687813   x
            x  Ni               45         0.563300   0.688455   0.684147   x
            x  Ni               46         0.687272   0.690723   0.811566   x
            x  Ni               47         0.817225   0.443220   0.939816   x
            x  Ni               48         0.817102   0.687465   0.689392   x
            x  Ni               49         0.056864   0.809861   0.813466   x
            x  Ni               50         0.057849   0.937191   0.688111   x
            x  Ni               51         0.182459   0.807628   0.686154   x
            x  Ni               52         0.310429   0.807962   0.807403   x
            x  Ni               53         0.181121   0.687565   0.565599   x
            x  Ni               54         0.310965   0.810526   0.563447   x
            x  Ni               55         0.436895   0.932776   0.810150   x
            x  Ni               56         0.688684   0.815057   0.686356   x
            x  Ni               57         0.438971   0.810825   0.682370   x
            x  Ni               58         0.687247   0.933727   0.811910   x
            x  Ni               59         0.815482   0.810263   0.814747   x
            x  Ni               60         0.817289   0.936169   0.690770   x
            x  Ni               61         0.565591   0.813542   0.556400   x
            x  Ni               62         0.061747   0.186677   0.939783   x
            x  Ni               63         0.185558   0.187674   0.065301   x
            x  Ni               64         0.311417   0.060153   0.063029   x
            x  Ni               65         0.314657   0.185975   0.937934   x
            x  Ni               66         0.438721   0.184628   0.062592   x
            x  Ni               67         0.564141   0.060709   0.065731   x
            x  Ni               68         0.433803   0.055200   0.938437   x
            x  Ni               69         0.818707   0.058270   0.064540   x
            x  Ni               70         0.815395   0.185996   0.938362   x
            x  Ni               71         0.691139   0.059292   0.938201   x
            x  Ni               72         0.063669   0.437354   0.939777   x
            x  Ni               73         0.189068   0.437812   0.060658   x
            x  Ni               74         0.313853   0.314080   0.062450   x
            x  Ni               75         0.442099   0.442391   0.067707   x
            x  Ni               76         0.435665   0.312792   0.937064   x
            x  Ni               77         0.561703   0.438524   0.936675   x
            x  Ni               78         0.561963   0.311294   0.815424   x
            x  Ni               79         0.686030   0.433282   0.064108   x
            x  Ni               80         0.939133   0.187167   0.063652   x
            x  Ni               81         0.814642   0.313580   0.061956   x
            x  Ni               82         0.062584   0.563280   0.065275   x
            x  Ni               83         0.061494   0.687707   0.941303   x
            x  Ni               84         0.188418   0.689914   0.063260   x
            x  Ni               85         0.316793   0.567956   0.066057   x
            x  Ni               86         0.188832   0.565127   0.940802   x
            x  Ni               87         0.438964   0.813160   0.938968   x
            x  Ni               88         0.441880   0.569745   0.942400   x
            x  Ni               89         0.687806   0.690788   0.067582   x
            x  Ni               90         0.815871   0.688836   0.941863   x
            x  Ni               91         0.563861   0.691886   0.939648   x
            x  Ni               92         0.060936   0.814539   0.065189   x
            x  Ni               93         0.061998   0.938934   0.941010   x
[...]
             Al 52 -- Al 54                  0.26        2.59798
            Ni 119 -- Ni 158                -0.01        2.59806
            Ni 56  -- Ni 61                  0.04        2.59817
             Al 55 -- Ni 78                  0.19        2.59819
             Al 71 -- Ni 167                 0.18        2.59823
            Ni 54  -- Ni 148                -0.00        2.59828
             Al 22 -- Ni 159                 0.20        2.59829
             Al 24 -- Ni 15                  0.16        2.59836
            Ni 10  -- Ni 109                -0.03        2.59849
            Ni 13  -- Ni 167                 0.07        2.59857
             Al 25 -- Ni 173                 0.18        2.59859
             Al 67 -- Ni 42                  0.16        2.59882
            Ni 41  -- Ni 88                  0.04        2.59888
            Ni 55  -- Ni 57                 -0.03        2.59897
            Ni 21  -- Ni 171                 0.07        2.59906
             Al 12 -- Ni 140                 0.18        2.59943
            Ni 9   -- Ni 116                 0.07        2.59961
            Ni 13  -- Ni 144                 0.03        2.59974
             Al 25 -- Ni 181                 0.16        2.59977
            Ni 52  -- Ni 57                  0.04        2.59998
            Ni 74  -- Ni 111                 0.13        2.60006
            Ni 69  -- Ni 71                  0.09        2.60007
             Al 41 -- Ni 39                  0.16        2.60010
            Ni 106 -- Ni 151                 0.03        2.60044
            Ni 5   -- Ni 81                  0.01        2.60070
            Ni 66  -- Ni 68                  0.05        2.60075
            Ni 119 -- Ni 123                 0.07        2.60152
            Ni 75  -- Ni 85                  0.06        2.60197
            Ni 24  -- Ni 26                  0.01        2.60241
            Ni 87  -- Ni 95                 -0.06        2.60251
             Al 11 -- Ni 82                  0.18        2.60257
             Al 12 -- Al 33                  0.27        2.60283
             Al 41 -- Ni 153                 0.19        2.60325
            Ni 147 -- Ni 151                 0.07        2.60349
             Al 12 -- Ni 129                 0.14        2.60387
             Al 27 -- Ni 33                  0.13        2.60402
            Ni 62  -- Ni 63                 -0.07        2.60418
             Al 70 -- Ni 153                 0.14        2.60418
             Al 13 -- Ni 178                 0.18        2.60462
             Al 32 -- Ni 99                  0.17        2.60487
            Ni 11  -- Ni 128                 0.09        2.60535
             Al 41 -- Ni 162                 0.18        2.60537
             Al 44 -- Ni 104                 0.14        2.60537
            Ni 16  -- Ni 178                -0.02        2.60550
            Ni 16  -- Ni 60                  0.04        2.60563
            Ni 113 -- Ni 115                 0.10        2.60577
            Ni 103 -- Ni 178                 0.14        2.60593
             Al 8  -- Ni 90                  0.18        2.60603
             Al 23 -- Ni 51                  0.18        2.60627
            Ni 5   -- Ni 116                -0.01        2.60641
            Ni 166 -- Ni 177                 0.08        2.60647
            Ni 27  -- Ni 100                 0.09        2.60658
            Ni 2   -- Ni 38                  0.04        2.60666
            Ni 154 -- Ni 156                 0.05        2.60680
            Ni 24  -- Ni 68                  0.03        2.60684
            Ni 7   -- Ni 92                  0.06        2.60708
            Ni 47  -- Ni 79                  0.04        2.60728
             Al 68 -- Ni 3                   0.15        2.60736
             Al 66 -- Ni 159                 0.14        2.60760
            Ni 29  -- Ni 154                 0.03        2.60762
             Al 23 -- Ni 22                  0.15        2.60786
             Al 3  -- Ni 15                  0.17        2.60801
            Ni 3   -- Ni 83                  0.01        2.60805
             Al 1  -- Ni 16                  0.17        2.60830
            Ni 8   -- Ni 141                -0.01        2.60832
             Al 21 -- Ni 178                 0.17        2.60838
             Al 9  -- Ni 101                 0.18        2.60842
            Ni 1   -- Ni 27                  0.02        2.60860
            Ni 15  -- Ni 175                 0.07        2.60871
             Al 61 -- Al 62                  0.26        2.60875
            Ni 73  -- Ni 123                 0.06        2.60915
            Ni 115 -- Ni 147                 0.09        2.60955
            Ni 63  -- Ni 65                  0.02        2.60959
             Al 27 -- Ni 34                  0.09        2.60972
             Al 40 -- Ni 115                 0.15        2.60973
             Al 36 -- Ni 130                 0.16        2.61004
            Ni 42  -- Ni 159                 0.01        2.61128
            Ni 137 -- Ni 139                 0.01        2.61177
             Al 53 -- Ni 126                 0.16        2.61218
            Ni 31  -- Ni 157                 0.01        2.61218
            Ni 43  -- Ni 87                  0.01        2.61225
             Al 26 -- Ni 181                 0.15        2.61281
            Ni 12  -- Ni 107                 0.08        2.61324
            Ni 4   -- Ni 59                  0.01        2.61353
            Ni 26  -- Ni 78                 -0.11        2.61395
            Ni 110 -- Ni 111                 0.01        2.61446
             Al 26 -- Ni 61                  0.17        2.61489
            Ni 40  -- Ni 72                  0.12        2.61519
             Al 15 -- Ni 14                  0.18        2.61529
            Ni 52  -- Ni 96                 -0.07        2.61534
            Ni 182 -- Ni 183                -0.04        2.61560
            Ni 54  -- Ni 170                 0.06        2.61599
             Al 47 -- Ni 7                   0.16        2.61606
             Al 9  -- Ni 80                  0.19        2.61619
             Al 37 -- Al 42                  0.23        2.61643
             Al 40 -- Ni 151                 0.15        2.61647
             Al 15 -- Ni 10                  0.18        2.61649
             Al 21 -- Ni 169                 0.15        2.61654
             Al 63 -- Ni 61                  0.18        2.61659
             Al 15 -- Ni 169                 0.20        2.61666
            Ni 126 -- Ni 137                 0.13        2.61752
             Al 64 -- Ni 2                   0.16        2.61815
            Ni 72  -- Ni 82                  0.03        2.61867
            Ni 2   -- Ni 30                  0.05        2.61908
            Ni 124 -- Ni 125                 0.04        2.61910
             Al 11 -- Ni 6                   0.20        2.61921
            Ni 87  -- Ni 97                 -0.00        2.61930
             Al 3  -- Al 68                  0.24        2.61949
            Ni 157 -- Ni 158                 0.01        2.61981
            Ni 69  -- Ni 70                  0.03        2.61996
            Ni 49  -- Ni 96                  0.05        2.61998
            Ni 163 -- Ni 177                 0.00        2.62003
            Ni 69  -- Ni 80                  0.08        2.62035
             Al 43 -- Ni 108                 0.14        2.62067
            Ni 110 -- Ni 119                 0.03        2.62072
            Ni 121 -- Ni 169                -0.01        2.62079
            Ni 54  -- Ni 179                 0.04        2.62099
            Ni 24  -- Ni 25                 -0.01        2.62135
            Ni 6   -- Ni 47                  0.04        2.62137
             Al 43 -- Ni 118                 0.13        2.62198
             Al 62 -- Ni 62                  0.15        2.62205
             Al 18 -- Ni 61                  0.15        2.62240
             Al 22 -- Al 35                  0.34        2.62317
            Ni 7   -- Ni 82                  0.06        2.62360
             Al 36 -- Ni 125                 0.16        2.62386
            Ni 51  -- Ni 148                 0.06        2.62419
             Al 25 -- Ni 61                  0.16        2.62435
            Ni 67  -- Ni 68                  0.05        2.62459
            Ni 20  -- Ni 65                  0.05        2.62470
            Ni 143 -- Ni 178                 0.09        2.62501
            Ni 149 -- Ni 171                 0.05        2.62514
             Al 2  -- Ni 2                   0.19        2.62515
             Al 14 -- Ni 167                 0.17        2.62532
            Ni 69  -- Ni 108                 0.07        2.62583
            Ni 73  -- Ni 85                  0.11        2.62599
             Al 60 -- Ni 76                  0.17        2.62601
            Ni 21  -- Ni 33                  0.03        2.62674
            Ni 23  -- Ni 78                  0.01        2.62692
             Al 61 -- Ni 93                  0.18        2.62722
            Ni 28  -- Ni 78                  0.04        2.62732
             Al 48 -- Ni 98                  0.15        2.62856
             Al 49 -- Al 50                  0.25        2.62957
            Ni 95  -- Ni 138                -0.00        2.62960
             Al 36 -- Al 37                  0.25        2.62972
             Al 28 -- Ni 42                  0.14        2.62986
             Al 16 -- Ni 178                 0.14        2.63015
            Ni 31  -- Ni 32                  0.10        2.63063
            Ni 28  -- Ni 37                  0.02        2.63064
             Al 5  -- Ni 8                   0.18        2.63065
            Ni 102 -- Ni 112                 0.01        2.63112
            Ni 19  -- Ni 62                 -0.01        2.63231
            Ni 19  -- Ni 65                 -0.07        2.63251
             Al 42 -- Ni 118                 0.16        2.63298
             Al 4  -- Ni 3                   0.16        2.63328
            Ni 74  -- Ni 75                  0.07        2.63394
            Ni 36  -- Ni 89                 -0.02        2.63442
            Ni 32  -- Ni 42                  0.07        2.63478
            Ni 110 -- Ni 123                 0.00        2.63502
            Ni 40  -- Ni 83                 -0.02        2.63582
             Al 6  -- Ni 6                   0.17        2.63680
            Ni 41  -- Ni 161                -0.00        2.63699
             Al 46 -- Al 48                  0.25        2.63729
            Ni 99  -- Ni 142                -0.01        2.63765
             Al 11 -- Ni 117                 0.15        2.63768
             Al 50 -- Ni 64                  0.12        2.63828
             Al 15 -- Ni 15                  0.18        2.63945
             Al 52 -- Ni 88                  0.17        2.63965
            Ni 3   -- Ni 59                  0.03        2.63985
            Ni 26  -- Ni 37                 -0.01        2.63988
            Ni 89  -- Ni 130                 0.03        2.64026
             Al 10 -- Ni 109                 0.16        2.64037
             Al 14 -- Ni 10                  0.18        2.64075
            Ni 102 -- Ni 105                 0.02        2.64131
            Ni 23  -- Ni 76                  0.01        2.64205
            Ni 28  -- Ni 47                 -0.02        2.64245
             Al 72 -- Ni 32                  0.15        2.64283
             Al 19 -- Ni 181                 0.13        2.64331
            Ni 79  -- Ni 130                -0.01        2.64378
            Ni 20  -- Ni 21                  0.09        2.64387
             Al 24 -- Al 68                  0.22        2.64406
            Ni 133 -- Ni 179                -0.03        2.64436
             Al 30 -- Ni 162                 0.16        2.64459
            Ni 91  -- Ni 97                  0.04        2.64522
            Ni 37  -- Ni 47                  0.04        2.64526
            Ni 15  -- Ni 176                 0.04        2.64715
            Ni 102 -- Ni 109                 0.07        2.64749
            Ni 106 -- Ni 147                 0.02        2.64749
             Al 20 -- Ni 20                  0.16        2.64763
             Al 32 -- Ni 67                  0.16        2.64830
             Al 48 -- Ni 58                  0.12        2.64871
             Al 63 -- Ni 58                  0.15        2.65050
             Al 56 -- Al 72                  0.24        2.65112
            Ni 159 -- Ni 161                 0.05        2.65152
            Ni 48  -- Ni 56                  0.08        2.65173
             Al 52 -- Ni 85                  0.13        2.65194
             Al 56 -- Ni 73                  0.14        2.65231
            Ni 116 -- Ni 117                 0.01        2.65239
            Ni 119 -- Ni 169                 0.07        2.65309
            Ni 139 -- Ni 151                -0.00        2.65462
            Ni 53  -- Ni 159                 0.05        2.65720
            Ni 80  -- Ni 81                  0.07        2.65752
            Ni 36  -- Ni 79                  0.00        2.65840
             Al 66 -- Ni 52                  0.16        2.65955
             Al 3  -- Ni 40                  0.12        2.65976
             Al 61 -- Ni 94                  0.13        2.66029
            Ni 117 -- Ni 118                 0.12        2.66059
             Al 17 -- Ni 150                 0.14        2.66077
             Al 20 -- Ni 52                  0.13        2.66139
             Al 27 -- Al 72                  0.22        2.66165
            Ni 153 -- Ni 166                 0.07        2.66483
             Al 39 -- Ni 6                   0.14        2.66526
            Ni 35  -- Ni 88                  0.03        2.66626
             Al 35 -- Ni 122                 0.11        2.66630
            Ni 110 -- Ni 112                 0.04        2.66632
             Al 48 -- Al 63                  0.23        2.66718
            Ni 101 -- Ni 102                 0.06        2.66873
            Ni 145 -- Ni 171                 0.06        2.67127
            Ni 23  -- Ni 33                  0.01        2.67244
             Al 32 -- Al 49                  0.25        2.67410
             Al 21 -- Al 33                  0.22        2.67437
             Al 17 -- Ni 61                  0.14        2.67605
             Al 21 -- Al 24                  0.22        2.67711
            Ni 50  -- Ni 51                  0.02        2.67919
             Al 38 -- Ni 104                 0.12        2.68031
             Al 70 -- Ni 156                 0.11        2.68086
             Al 22 -- Al 28                  0.28        2.68285
             Al 5  -- Ni 80                  0.15        2.68394
             Al 34 -- Al 37                  0.19        2.68659
             Al 51 -- Ni 7                   0.13        2.68731
             Al 34 -- Al 52                  0.20        2.69002
            Ni 162 -- Ni 163                 0.04        2.69061
            Ni 116 -- Ni 118                 0.09        2.69071
             Al 36 -- Ni 115                 0.13        2.69208
            Ni 168 -- Ni 169                 0.04        2.69224
            Ni 133 -- Ni 170                -0.02        2.69373
             Al 3  -- Al 64                  0.22        2.69415
             Al 45 -- Ni 80                  0.13        2.69496
             Al 17 -- Al 63                  0.23        2.69538
            Ni 159 -- Ni 172                 0.04        2.70000
             Al 6  -- Al 58                  0.21        2.70100
            Ni 75  -- Ni 76                  0.05        2.70323
             Al 39 -- Al 58                  0.22        2.70326
             Al 45 -- Al 58                  0.21        2.70572
             Al 17 -- Al 19                  0.23        2.70654
             Al 27 -- Al 28                  0.23        2.70802
            Ni 70  -- Ni 80                  0.03        2.71140
             Al 6  -- Ni 80                  0.14        2.71277
             Al 27 -- Al 30                  0.22        2.71616
             Al 9  -- Al 62                  0.23        2.71664
             Al 25 -- Al 26                  0.21        2.71698
             Al 45 -- Al 62                  0.20        2.71980
            Ni 162 -- Ni 164                 0.05        2.72040
             Al 11 -- Al 39                  0.20        2.72062
             Al 5  -- Al 62                  0.22        2.72083
            Ni 49  -- Ni 93                  0.04        2.72099
             Al 20 -- Al 50                  0.22        2.72123
             Al 20 -- Al 23                  0.21        2.72272
             Al 7  -- Ni 90                  0.13        2.72599
             Al 11 -- Al 51                  0.22        2.72828
             Al 18 -- Al 19                  0.19        2.73367
             Al 50 -- Al 61                  0.18        2.73461
             Al 18 -- Al 26                  0.20        2.74009
             Al 41 -- Al 71                  0.19        2.74350
             Al 31 -- Al 38                  0.22        2.74555
             Al 16 -- Al 24                  0.17        2.74557
             Al 42 -- Al 43                  0.19        2.74594
             Al 4  -- Al 24                  0.18        2.74965
             Al 40 -- Al 43                  0.19        2.74998
             Al 52 -- Al 53                  0.18        2.75262
             Al 69 -- Al 71                  0.18        2.75326
             Al 36 -- Ni 118                 0.12        2.75364
             Al 29 -- Al 70                  0.19        2.75571
             Al 42 -- Al 60                  0.23        2.75613
             Al 10 -- Al 58                  0.19        2.77286
             Al 40 -- Al 70                  0.19        2.77510
             Al 37 -- Al 53                  0.15        2.77569
             Al 34 -- Al 53                  0.16        2.77830
             Al 20 -- Al 61                  0.17        2.77965
             Al 4  -- Al 68                  0.16        2.78323
             Al 16 -- Al 33                  0.16        2.78739
             Al 29 -- Al 71                  0.17        2.78780
             Al 8  -- Al 47                  0.19        2.78834
             Al 66 -- Al 67                  0.17        2.79280
             Al 51 -- Ni 6                   0.12        2.79805
             Al 42 -- Al 55                  0.18        2.79830
             Al 7  -- Al 51                  0.20        2.79924
             Al 31 -- Al 44                  0.16        2.79979
             Al 56 -- Al 57                  0.16        2.80418
             Al 7  -- Al 64                  0.17        2.81194
             Al 29 -- Al 69                  0.16        2.81903
             Al 10 -- Al 45                  0.15        2.83647
             Al 9  -- Al 45                  0.13        2.83903
             Al 43 -- Al 59                  0.14        2.85178
             Al 55 -- Al 59                  0.16        2.85667
             Al 10 -- Al 39                  0.14        2.86440
             Al 59 -- Al 60                  0.16        2.88793
             Al 57 -- Al 72                  0.12        2.90100
             Al 55 -- Al 60                  0.11        2.93219
             Al 42 -- Al 59                  0.13        2.93444
======================================================================
 

Writing analysis data to castep.castep_bin

Writing model to castep.check
 
 A BibTeX formatted list of references used in this run has been written to 
 castep.bib
 
Initialisation time =     28.06 s
Calculation time    =  12884.98 s
Finalisation time   =      5.73 s
Total time          =  12918.76 s
Peak Memory Use     = 3940176 kB
 
Overall parallel efficiency rating: Satisfactory (65%)
 
Data was distributed by:-
G-vector (128-way); efficiency rating: Satisfactory (67%)
