 +-------------------------------------------------+
 |                                                 |
 |      CCC   AA    SSS  TTTTT  EEEEE  PPPP        |
 |     C     A  A  S       T    E      P   P       |
 |     C     AAAA   SS     T    EEE    PPPP        |
 |     C     A  A     S    T    E      P           |
 |      CCC  A  A  SSS     T    EEEEE  P           |
 |                                                 |
 +-------------------------------------------------+
 |                                                 |
 | Welcome to Academic Release CASTEP version 20.11|          
 | Ab Initio Total Energy Program                  |
 |                                                 |
 | Authors:                                        |
 | M. Segall, M. Probert, C. Pickard, P. Hasnip,   |
 | S. Clark, K. Refson, J. R. Yates, M. Payne      |
 |                                                 |
 | Contributors:                                   |
 | P. Lindan, P. Haynes, J. White, V. Milman,      |
 | N. Govind, M. Gibson, P. Tulip, V. Cocula,      |
 | B. Montanari, D. Quigley, M. Glover,            |
 | L. Bernasconi, A. Perlov, M. Plummer,           |
 | E. McNellis, J. Meyer, J. Gale, D. Jochym       |
 | J. Aarons, B. Walker, R. Gillen, D. Jones       |
 | T. Green, I. J. Bush, C. J. Armstrong,          |
 | E. J. Higgins, E. L. Brown, M. S. McFly,        |
 | J. Wilkins, B-C. Shih, P. J. P. Byrne,          |
 | R. J. Maurer, J. C. Womack, J. Dziedzic,        |
 | J. R. Kermode, A. Bartok-Partay                 |
 |                                                 |
 | Copyright (c) 2000 - 2020                       |
 |                                                 |
 |     Distributed under license from Cambridge    |
 |     Enterprise for academic use only.           |
 |                                                 |
 | Please cite                                     |
 |                                                 |
 |     "First principles methods using CASTEP"     |
 |                                                 |
 |         Zeitschrift fuer Kristallographie       |
 |           220(5-6) pp. 567-570 (2005)           |
 |                                                 |
 | S. J. Clark, M. D. Segall, C. J. Pickard,       |
 | P. J. Hasnip, M. J. Probert, K. Refson,         |
 | M. C. Payne                                     |
 |                                                 |
 |       in all publications arising from          |
 |              your use of CASTEP                 |
 |                                                 |
 +-------------------------------------------------+
 |                                                 |
 |              http://www.castep.org              |
 |                                                 |
 +-------------------------------------------------+
 
 
 
 Compiled for linux_x86_64_ifort on Wed, 25 Aug 2021 18:50:38 +0100
 from code version e772bf432+  HEAD  Sat Apr 3 17:41:32 2021 +0100
 Compiler: Intel Fortran 19.0.5.281; Optimisation: fast
 MATHLIBS: Intel MKL(2019.0.5) (LAPACK version 3.7.0)
 FFT Lib : mkl
 Fundamental constants values: CODATA 2014
 
 Run started: Wed, 08 Mar 2023 11:59:56 +0000
 
 Atomic calculation performed for Al: 1s2 2s2 2p6 3s2 3p1
 
 Converged in 52 iterations to an ae energy of -6606.982 eV
 
   ============================================================                
   | Pseudopotential Report - Date of generation  8-03-2023   |                
   ------------------------------------------------------------                
   | Element: Al Ionic charge:  3.00 Level of theory: RPBE    |                
   | Atomic Solver: Koelling-Harmon                           |                
   |                                                          |                
   |               Reference Electronic Structure             |                
   |         Orbital         Occupation         Energy        |                
   |            3s              2.000           -0.284        |                
   |            3p              1.000           -0.100        |                
   |                                                          |                
   |                 Pseudopotential Definition               |                
   |        Beta     l      e      Rc     scheme   norm       |                
   |          1      0   -0.284   2.192     qc      0         |                
   |          2      0    0.250   2.192     qc      0         |                
   |          3      1   -0.100   2.192     qc      0         |                
   |          4      1    0.250   2.192     qc      0         |                
   |          5      2    0.000   2.000     qc      0         |                
   |          6      2    0.250   2.000     qc      0         |                
   |         loc     3    0.000   2.192     pn      0         |                
   |                                                          |                
   | Augmentation charge Rinner = 1.398                       |                
   | Partial core correction Rc = 1.398                       |                
   ------------------------------------------------------------                
   | "3|2.2|2.2|1.4|4|5|5|30:31:32U2U2"                       |                
   ------------------------------------------------------------                
   |      Author: Chris J. Pickard, Cambridge University      |                
   ============================================================                
 
 Atomic calculation performed for Ni: 1s2 2s2 2p6 3s2 3p6 3d8 4s2
 
 Converged in 109 iterations to an ae energy of -41381.414 eV
 
   ============================================================                
   | Pseudopotential Report - Date of generation  8-03-2023   |                
   ------------------------------------------------------------                
   | Element: Ni Ionic charge: 10.00 Level of theory: RPBE    |                
   | Atomic Solver: Koelling-Harmon                           |                
   |                                                          |                
   |               Reference Electronic Structure             |                
   |         Orbital         Occupation         Energy        |                
   |            3d              8.000           -0.324        |                
   |            4s              2.000           -0.204        |                
   |                                                          |                
   |                 Pseudopotential Definition               |                
   |        Beta     l      e      Rc     scheme   norm       |                
   |          1      0   -0.204   2.401     qc      0         |                
   |          2      0    0.250   2.401     qc      0         |                
   |          3      1    0.000   2.401     qc      0         |                
   |          4      1    0.250   2.401     qc      0         |                
   |          5      2   -0.324   1.999     qc      0         |                
   |          6      2    0.250   1.999     qc      0         |                
   |         loc     3    0.000   2.401     pn      0         |                
   |                                                          |                
   | Augmentation charge Rinner = 1.001                       |                
   | Partial core correction Rc = 1.001                       |                
   ------------------------------------------------------------                
   | "3|2.4|2.4|1.0|8|9|10|40:41:32U2U2(qc=5.5)"              |                
   ------------------------------------------------------------                
   |      Author: Chris J. Pickard, Cambridge University      |                
   ============================================================                
 
 Pseudo atomic calculation performed for Al 3s2 3p1
 
 Converged in 13 iterations to a total energy of -107.6592 eV
 
 Pseudo atomic calculation performed for Ni 3d8 4s2
 
 Converged in 41 iterations to a total energy of -1369.7891 eV
 Calculation parallelised over 48 processes.
 Data is distributed by G-vector(48-way)

 ************************************ Title ************************************
 

 ***************************** General Parameters ******************************
  
 output verbosity                               : normal  (1)
 write checkpoint data to                       : castep.check
 type of calculation                            : geometry optimization
 stress calculation                             : off
 density difference calculation                 : off
 electron localisation func (ELF) calculation   : off
 Hirshfeld analysis                             : off
 molecular orbital projected DOS                : off
 deltaSCF calculation                           : off
 unlimited duration calculation
 timing information                             : on
 memory usage estimate                          : on
 write extra output files                       : on
 write final potential to formatted file        : off
 write final density to formatted file          : off
 write BibTeX reference list                    : on
 write OTFG pseudopotential files               : on
 write electrostatic potential file             : on
 write bands file                               : on
 checkpoint writing                             : both castep_bin and check files
  
 output         length unit                     : A
 output           mass unit                     : amu
 output           time unit                     : ps
 output         charge unit                     : e
 output           spin unit                     : hbar/2
 output         energy unit                     : eV
 output          force unit                     : eV/A
 output       velocity unit                     : A/ps
 output       pressure unit                     : GPa
 output     inv_length unit                     : 1/A
 output      frequency unit                     : cm-1
 output force constant unit                     : eV/A**2
 output         volume unit                     : A**3
 output   IR intensity unit                     : (D/A)**2/amu
 output         dipole unit                     : D
 output         efield unit                     : eV/A/e
 output        entropy unit                     : J/mol/K
 output    efield chi2 unit                     : pm/V
  
 wavefunctions paging                           : none
 random number generator seed                   : randomised (115956791)
 data distribution                              : optimal for this architecture
 optimization strategy                          : maximize speed(+++)

 *********************** Exchange-Correlation Parameters ***********************
  
 using functional                               : revised Perdew Burke Ernzerhof
 relativistic treatment                         : Koelling-Harmon
 DFT+D: Semi-empirical dispersion correction    : off

 ************************* Pseudopotential Parameters **************************
  
 pseudopotential representation                 : reciprocal space
 <beta|phi> representation                      : reciprocal space
 spin-orbit coupling                            : off

 **************************** Basis Set Parameters *****************************
  
 plane wave basis set cut-off                   :   900.0000   eV
 size of standard grid                          :     1.7500
 size of   fine   gmax                          :    26.8966   1/A
 finite basis set correction                    : none

 **************************** Electronic Parameters ****************************
  
 number of  electrons                           :  2109.    
 net charge of system                           :  0.000    
 net spin   of system                           :  1.000    
 number of  up  spins                           :  1055.    
 number of down spins                           :  1054.    
 treating system as spin-polarized
 number of bands                                :       1167

 ********************* Electronic Minimization Parameters **********************
  
 Method: Treating system as metallic with density mixing treatment of electrons,
         and number of  SD  steps               :          1
         and number of  CG  steps               :          4
  
 total energy / atom convergence tol.           : 0.1000E-05   eV
 eigen-energy convergence tolerance             : 0.2185E-06   eV
 max force / atom convergence tol.              : ignored
 convergence tolerance window                   :          3   cycles
 max. number of SCF cycles                      :        200
 number of fixed-spin iterations                :         10
 smearing scheme                                : Gaussian
 smearing width                                 : 0.2000       eV
 Fermi energy convergence tolerance             : 0.2721E-13   eV
 periodic dipole correction                     : NONE
 periodically dump wavefunctions to             : castep.wvfn
 dump wavefunctions every                       :          1   SCF cycles

 ************************** Density Mixing Parameters **************************
  
 density-mixing scheme                          : Pulay
 max. length of mixing history                  :         20
 charge density mixing amplitude                : 0.8000    
   spin density mixing amplitude                :  2.000    
 cut-off energy for mixing                      :  900.0       eV

 *********************** Population Analysis Parameters ************************
  
 Population analysis with cutoff                :  3.000       A
 Population analysis output                     : summary and pdos components

 ********************** Geometry Optimization Parameters ***********************
  
 optimization method                            : LBFGS
 max. no. of LBFGS updates                      : unbounded
 variable cell method                           : fixed basis quality
 max. number of steps                           :         30
 estimated bulk modulus                         :  500.0       GPa
 estimated <frequency>                          :  1668.       cm-1
 geom line minimiser                            : on
 with line minimiser tolerance                  :     0.4000
  with spin fully able to relax for all steps
 total energy convergence tolerance             : 0.2000E-04   eV/atom
        max ionic |force| tolerance             : 0.5000E-01   eV/A
 max ionic |displacement| tolerance             : 0.1000E-02   A
   max |stress component| tolerance             : 0.1000       GPa
 convergence tolerance window                   :          2   steps
 backup results every                           :          5   steps
 write geom trajectory file                     : on

 *******************************************************************************
  
 
                           -------------------------------
                                      Unit Cell
                           -------------------------------
        Real Lattice(A)                      Reciprocal Lattice(1/A)
    14.4648280     0.0000000     0.0000000        0.434376773   0.000000000   0.000000000
     0.0000000    14.4648280     0.0000000        0.000000000   0.434376773   0.000000000
     0.0000000     0.0000000    14.4648280        0.000000000   0.000000000   0.434376773
 
                       Lattice parameters(A)       Cell Angles
                    a =     14.464828          alpha =   90.000000
                    b =     14.464828          beta  =   90.000000
                    c =     14.464828          gamma =   90.000000
 
                       Current cell volume =          3026.494030       A**3
                                   density =             4.285146   AMU/A**3
                                           =             7.115653     g/cm^3
 
                           -------------------------------
                                     Cell Contents
                           -------------------------------
                         Total number of ions in cell =  255
                      Total number of species in cell =    2
                        Max number of any one species =  192
 
            xxxxxxxxxxxxxxxxxxxxxxxxxxxxxxxxxxxxxxxxxxxxxxxxxxxxxxxxxxxx
            x  Element    Atom        Fractional coordinates of atoms  x
            x            Number           u          v          w      x
            x----------------------------------------------------------x
            x  Al           1         0.569806   0.308622   0.065059   x 
            x  Al           2         0.817951   0.309633   0.062664   x 
            x  Al           3         0.568881   0.558713   0.066468   x 
            x  Al           4         0.817350   0.558387   0.063172   x 
            x  Al           5         0.574859   0.809258   0.059671   x 
            x  Al           6         0.818744   0.807917   0.061957   x 
            x  Al           7         0.571825   0.059181   0.062782   x 
            x  Al           8         0.819553   0.059518   0.061548   x 
            x  Al           9         0.569823   0.306122   0.313163   x 
            x  Al          10         0.819185   0.308383   0.312560   x 
            x  Al          11         0.573383   0.555040   0.312598   x 
            x  Al          12         0.818113   0.558918   0.312634   x 
            x  Al          13         0.577649   0.814984   0.312704   x 
            x  Al          14         0.819651   0.808958   0.312393   x 
            x  Al          15         0.574715   0.057060   0.308743   x 
            x  Al          16         0.820454   0.058863   0.312169   x 
            x  Al          17         0.575831   0.302864   0.560424   x 
            x  Al          18         0.818652   0.309210   0.562829   x 
            x  Al          19         0.573229   0.564155   0.559741   x 
            x  Al          20         0.817728   0.559166   0.562531   x 
            x  Al          21         0.575179   0.809577   0.566073   x 
            x  Al          22         0.819506   0.808399   0.563823   x 
            x  Al          23         0.577658   0.057871   0.569183   x 
            x  Al          24         0.820522   0.058410   0.564020   x 
            x  Al          25         0.571014   0.309951   0.811997   x 
            x  Al          26         0.817584   0.310510   0.813260   x 
            x  Al          27         0.568361   0.558297   0.812771   x 
            x  Al          28         0.817092   0.558170   0.813053   x 
            x  Al          29         0.570314   0.808081   0.813853   x 
            x  Al          30         0.819175   0.807413   0.813635   x 
            x  Al          31         0.572100   0.058932   0.812499   x 
            x  Al          32         0.819934   0.059407   0.814085   x 
            x  Al          33         0.328862   0.183238   0.934599   x 
            x  Al          34         0.056071   0.058323   0.808385   x 
            x  Al          35         0.192522   0.190652   0.805033   x 
            x  Al          36         0.321889   0.935684   0.939154   x 
            x  Al          37         0.192765   0.929975   0.805328   x 
            x  Al          38         0.318552   0.689581   0.944125   x 
            x  Al          39         0.074781   0.687234   0.929655   x 
            x  Al          40         0.197362   0.186655   0.572021   x 
            x  Al          41         0.066288   0.807061   0.566004   x 
            x  Al          42         0.325652   0.685599   0.688412   x 
            x  Al          43         0.193002   0.670155   0.563450   x 
            x  Al          44         0.325052   0.427628   0.687905   x 
            x  Al          45         0.327585   0.555988   0.819303   x 
            x  Al          46         0.198340   0.432133   0.547127   x 
            x  Al          47         0.065950   0.435124   0.684574   x 
            x  Al          48         0.317906   0.059858   0.311660   x 
            x  Al          49         0.441055   0.056783   0.444993   x 
            x  Al          50         0.185933   0.054361   0.184730   x 
            x  Al          51         0.066226   0.182485   0.441006   x 
            x  Al          52         0.433975   0.815755   0.439866   x 
            x  Al          53         0.069902   0.945639   0.441857   x 
            x  Al          54         0.200699   0.809930   0.431840   x 
            x  Al          55         0.432650   0.678665   0.311038   x 
            x  Al          56         0.437485   0.432543   0.545601   x 
            x  Al          57         0.193425   0.425568   0.319511   x 
            x  Al          58         0.187333   0.186962   0.058279   x 
            x  Al          59         0.434532   0.816990   0.185199   x 
            x  Al          60         0.191770   0.812312   0.187246   x 
            x  Al          61         0.192086   0.426487   0.056748   x 
            x  Al          62         0.191247   0.427430   0.822123   x 
            x  Al          63         0.188982   0.565211   0.186226   x 
            x  Ni           1         0.566326   0.431767   0.190718   x 
            x  Ni           2         0.694041   0.308251   0.188473   x 
            x  Ni           3         0.692558   0.433803   0.064397   x 
            x  Ni           4         0.818078   0.433915   0.187951   x 
            x  Ni           5         0.942832   0.309437   0.187429   x 
            x  Ni           6         0.942425   0.434346   0.062634   x 
            x  Ni           7         0.564261   0.687713   0.191739   x 
            x  Ni           8         0.692799   0.559065   0.188562   x 
            x  Ni           9         0.692856   0.682742   0.063981   x 
            x  Ni          10         0.818698   0.683407   0.187579   x 
            x  Ni          11         0.942537   0.558785   0.187665   x 
            x  Ni          12         0.942700   0.683078   0.062494   x 
            x  Ni          13         0.569249   0.932778   0.185210   x 
            x  Ni          14         0.695665   0.809096   0.186539   x 
            x  Ni          15         0.695876   0.934397   0.061256   x 
            x  Ni          16         0.820129   0.933822   0.186390   x 
            x  Ni          17         0.942996   0.808288   0.187067   x 
            x  Ni          18         0.943364   0.933396   0.061976   x 
            x  Ni          19         0.568782   0.183165   0.187725   x 
            x  Ni          20         0.696097   0.058622   0.185897   x 
            x  Ni          21         0.694106   0.184486   0.062391   x 
            x  Ni          22         0.819323   0.184128   0.186964   x 
            x  Ni          23         0.943433   0.058987   0.186860   x 
            x  Ni          24         0.943180   0.184762   0.062234   x 
            x  Ni          25         0.568748   0.432225   0.437722   x 
            x  Ni          26         0.694945   0.306625   0.436529   x 
            x  Ni          27         0.694403   0.432189   0.313257   x 
            x  Ni          28         0.818326   0.433905   0.437621   x 
            x  Ni          29         0.942747   0.309244   0.438061   x 
            x  Ni          30         0.942453   0.434216   0.312817   x 
            x  Ni          31         0.564607   0.689425   0.433060   x 
            x  Ni          32         0.693888   0.560211   0.436673   x 
            x  Ni          33         0.694229   0.684644   0.312470   x 
            x  Ni          34         0.819026   0.684279   0.437540   x 
            x  Ni          35         0.942400   0.559063   0.437932   x 
            x  Ni          36         0.942961   0.683701   0.312633   x 
            x  Ni          37         0.568742   0.935371   0.440257   x 
            x  Ni          38         0.695590   0.810250   0.438393   x 
            x  Ni          39         0.697786   0.935199   0.312221   x 
            x  Ni          40         0.820657   0.933755   0.438368   x 
            x  Ni          41         0.943351   0.808509   0.438125   x 
            x  Ni          42         0.943398   0.933533   0.312406   x 
            x  Ni          43         0.569798   0.177373   0.437541   x 
            x  Ni          44         0.696207   0.057442   0.438266   x 
            x  Ni          45         0.695586   0.182485   0.312252   x 
            x  Ni          46         0.820048   0.183135   0.437590   x 
            x  Ni          47         0.943929   0.058665   0.438191   x 
            x  Ni          48         0.943412   0.184008   0.312459   x 
            x  Ni          49         0.565872   0.434256   0.680437   x 
            x  Ni          50         0.694282   0.309716   0.687658   x 
            x  Ni          51         0.693787   0.433945   0.561234   x 
            x  Ni          52         0.817732   0.434592   0.687738   x 
            x  Ni          53         0.942823   0.309984   0.688234   x 
            x  Ni          54         0.942473   0.434483   0.563024   x 
            x  Ni          55         0.567159   0.683821   0.688675   x 
            x  Ni          56         0.692516   0.558858   0.687210   x 
            x  Ni          57         0.694391   0.684932   0.562037   x 
            x  Ni          58         0.818286   0.682873   0.688405   x 
            x  Ni          59         0.942523   0.558832   0.688035   x 
            x  Ni          60         0.942701   0.683503   0.563287   x 
            x  Ni          61         0.570598   0.933057   0.690555   x 
            x  Ni          62         0.695399   0.807913   0.690082   x 
            x  Ni          63         0.697380   0.933450   0.564742   x 
            x  Ni          64         0.820290   0.933065   0.689600   x 
            x  Ni          65         0.943322   0.807877   0.688689   x 
            x  Ni          66         0.943728   0.933317   0.563827   x 
            x  Ni          67         0.570994   0.183588   0.688807   x 
            x  Ni          68         0.697676   0.058636   0.690691   x 
            x  Ni          69         0.697809   0.182480   0.563332   x 
            x  Ni          70         0.819701   0.184842   0.689224   x 
            x  Ni          71         0.943620   0.058959   0.688884   x 
            x  Ni          72         0.942935   0.184264   0.563481   x 
            x  Ni          73         0.567324   0.434228   0.940255   x 
            x  Ni          74         0.692479   0.309766   0.938379   x 
            x  Ni          75         0.690865   0.434732   0.811886   x 
            x  Ni          76         0.816930   0.434358   0.937917   x 
            x  Ni          77         0.942803   0.310068   0.937694   x 
            x  Ni          78         0.942534   0.434550   0.812963   x 
            x  Ni          79         0.567582   0.683420   0.938635   x 
            x  Ni          80         0.691803   0.558278   0.938812   x 
            x  Ni          81         0.692945   0.682275   0.813313   x 
            x  Ni          82         0.817797   0.682300   0.938119   x 
            x  Ni          83         0.942468   0.558540   0.937902   x 
            x  Ni          84         0.942799   0.682775   0.813216   x 
            x  Ni          85         0.569116   0.934442   0.936813   x 
            x  Ni          86         0.695035   0.807910   0.937023   x 
            x  Ni          87         0.695600   0.933329   0.813988   x 
            x  Ni          88         0.819620   0.933672   0.937529   x 
            x  Ni          89         0.942983   0.807796   0.937794   x 
            x  Ni          90         0.943822   0.933276   0.813441   x 
            x  Ni          91         0.568091   0.183801   0.937788   x 
            x  Ni          92         0.694579   0.059582   0.937410   x 
            x  Ni          93         0.694561   0.185060   0.813737   x 
            x  Ni          94         0.818791   0.185204   0.937794   x 
            x  Ni          95         0.943731   0.059253   0.937630   x 
            x  Ni          96         0.943449   0.185080   0.813288   x 
            x  Ni          97         0.072830   0.431161   0.186795   x 
            x  Ni          98         0.191935   0.306445   0.186735   x 
            x  Ni          99         0.064917   0.306351   0.060173   x 
            x  Ni         100         0.312163   0.432397   0.187991   x 
            x  Ni         101         0.442260   0.306972   0.190645   x 
            x  Ni         102         0.317038   0.557594   0.063230   x 
            x  Ni         103         0.320140   0.305262   0.062716   x 
            x  Ni         104         0.066030   0.560488   0.057941   x 
            x  Ni         105         0.065169   0.687893   0.186848   x 
            x  Ni         106         0.315101   0.685121   0.184373   x 
            x  Ni         107         0.441818   0.557475   0.189699   x 
            x  Ni         108         0.444424   0.685948   0.066409   x 
            x  Ni         109         0.190257   0.686468   0.061682   x 
            x  Ni         110         0.065588   0.934550   0.185093   x 
            x  Ni         111         0.316805   0.812873   0.062332   x 
            x  Ni         112         0.190165   0.936728   0.057401   x 
            x  Ni         113         0.314069   0.939045   0.184710   x 
            x  Ni         114         0.318439   0.812068   0.309958   x 
            x  Ni         115         0.444956   0.936072   0.061698   x 
            x  Ni         116         0.065355   0.181075   0.184365   x 
            x  Ni         117         0.315998   0.062240   0.059553   x 
            x  Ni         118         0.066715   0.058915   0.055875   x 
            x  Ni         119         0.314812   0.179872   0.186090   x 
            x  Ni         120         0.443526   0.057239   0.187284   x 
            x  Ni         121         0.445038   0.183122   0.064088   x 
            x  Ni         122         0.193170   0.061874   0.928562   x 
            x  Ni         123         0.065619   0.430864   0.437518   x 
            x  Ni         124         0.191733   0.301352   0.437857   x 
            x  Ni         125         0.063956   0.304163   0.312175   x 
            x  Ni         126         0.446559   0.302658   0.435770   x 
            x  Ni         127         0.438317   0.432384   0.317734   x 
            x  Ni         128         0.319064   0.304683   0.313795   x 
            x  Ni         129         0.070257   0.685836   0.440089   x 
            x  Ni         130         0.191553   0.557527   0.433084   x 
            x  Ni         131         0.191399   0.685426   0.310824   x 
            x  Ni         132         0.066315   0.558595   0.311654   x 
            x  Ni         133         0.316028   0.682608   0.438127   x 
            x  Ni         134         0.444263   0.560813   0.434024   x 
            x  Ni         135         0.313727   0.554717   0.311409   x 
            x  Ni         136         0.065820   0.059667   0.312760   x 
            x  Ni         137         0.069375   0.815102   0.316211   x 
            x  Ni         138         0.315088   0.938455   0.440022   x 
            x  Ni         139         0.444489   0.936655   0.313814   x 
            x  Ni         140         0.191164   0.937997   0.312956   x 
            x  Ni         141         0.193967   0.063595   0.441017   x 
            x  Ni         142         0.190257   0.181730   0.310324   x 
            x  Ni         143         0.318020   0.180585   0.439169   x 
            x  Ni         144         0.444086   0.178015   0.313236   x 
            x  Ni         145         0.064866   0.308904   0.563085   x 
            x  Ni         146         0.448799   0.308992   0.682983   x 
            x  Ni         147         0.321314   0.309070   0.558770   x 
            x  Ni         148         0.066431   0.679162   0.688399   x 
            x  Ni         149         0.064892   0.556357   0.563051   x 
            x  Ni         150         0.197807   0.549121   0.690379   x 
            x  Ni         151         0.444901   0.557166   0.684527   x 
            x  Ni         152         0.444738   0.685578   0.560058   x 
            x  Ni         153         0.320811   0.555571   0.561509   x 
            x  Ni         154         0.064684   0.932195   0.687218   x 
            x  Ni         155         0.193012   0.803379   0.684728   x 
            x  Ni         156         0.191235   0.933597   0.565350   x 
            x  Ni         157         0.318285   0.932130   0.688771   x 
            x  Ni         158         0.445924   0.809728   0.686520   x 
            x  Ni         159         0.444699   0.933884   0.565368   x 
            x  Ni         160         0.315934   0.807019   0.563678   x 
            x  Ni         161         0.064882   0.186224   0.686487   x 
            x  Ni         162         0.191131   0.059456   0.691489   x 
            x  Ni         163         0.067446   0.061746   0.566501   x 
            x  Ni         164         0.320510   0.186986   0.689229   x 
            x  Ni         165         0.446315   0.058110   0.687215   x 
            x  Ni         166         0.445640   0.181834   0.563847   x 
            x  Ni         167         0.318108   0.059509   0.567997   x 
            x  Ni         168         0.066252   0.431621   0.935905   x 
            x  Ni         169         0.194610   0.303185   0.935928   x 
            x  Ni         170         0.192949   0.316989   0.685276   x 
            x  Ni         171         0.063584   0.309412   0.808278   x 
            x  Ni         172         0.320227   0.431847   0.938752   x 
            x  Ni         173         0.447505   0.308734   0.939130   x 
            x  Ni         174         0.447229   0.432730   0.812710   x 
            x  Ni         175         0.323165   0.309213   0.812856   x 
            x  Ni         176         0.067164   0.810919   0.058020   x 
            x  Ni         177         0.194194   0.558624   0.938136   x 
            x  Ni         178         0.199362   0.680453   0.810265   x 
            x  Ni         179         0.066280   0.556959   0.811618   x 
            x  Ni         180         0.442115   0.432246   0.066362   x 
            x  Ni         181         0.443587   0.683657   0.814754   x 
            x  Ni         182         0.444773   0.559655   0.943066   x 
            x  Ni         183         0.068169   0.932809   0.930342   x 
            x  Ni         184         0.194938   0.811414   0.934572   x 
            x  Ni         185         0.066525   0.807285   0.808272   x 
            x  Ni         186         0.445012   0.809972   0.940110   x 
            x  Ni         187         0.444728   0.934163   0.812638   x 
            x  Ni         188         0.321361   0.809290   0.813126   x 
            x  Ni         189         0.066359   0.183885   0.930972   x 
            x  Ni         190         0.320507   0.059009   0.811005   x 
            x  Ni         191         0.446403   0.058572   0.937259   x 
            x  Ni         192         0.446830   0.184331   0.810408   x 
            xxxxxxxxxxxxxxxxxxxxxxxxxxxxxxxxxxxxxxxxxxxxxxxxxxxxxxxxxxxx
 
 
                         No user defined ionic velocities
 
                           -------------------------------
                                   Details of Species
                           -------------------------------
 
                               Mass of species in AMU
                                    Al   26.9815400
                                    Ni   58.6934000
 
                          Electric Quadrupole Moment (Barn)
                                    Al    0.1466000 Isotope 27
                                    Ni    0.1620000 Isotope 61
 
                          Files used for pseudopotentials:
                                    Al 3|2.2|2.2|1.4|4|5|5|30:31:32U2U2
                                    Ni 3|2.4|2.4|1.0|8|9|10|40:41:32U2U2(qc=5.5)
 
                           -------------------------------
                              k-Points For BZ Sampling
                           -------------------------------
                       MP grid size for SCF calculation is  1  1  1
                            with an offset of   0.000  0.000  0.000
                       Number of kpoints used =             1
 
                           -------------------------------
                               Symmetry and Constraints
                           -------------------------------
 
                      Maximum deviation from symmetry =  0.00000         ANG
 
                      Number of symmetry operations   =           1
                      Number of ionic constraints     =           3
                      Point group of crystal =     1: C1, 1, 1
                      Space group of crystal =     1: P1, P 1
 
             Set iprint > 1 for details on symmetry rotations/translations
 
                         Centre of mass is constrained
             Set iprint > 1 for details of linear ionic constraints
 
                         Number of cell constraints= 6
                         Cell constraints are:  0 0 0 0 0 0
 
                         External pressure/stress (GPa)
                          0.00000   0.00000   0.00000
                                    0.00000   0.00000
                                              0.00000
  
+---------------- MEMORY AND SCRATCH DISK ESTIMATES PER PROCESS --------------+
|                                                     Memory          Disk    |
| Baseline code, static data and system overhead      622.0 MB         0.0 MB |
| BLAS internal memory storage                          0.0 MB         0.0 MB |
| Model and support data                              741.5 MB         0.0 MB |
| Electronic energy minimisation requirements         236.0 MB         0.0 MB |
| Force calculation requirements                        7.9 MB         0.0 MB |
|                                               ----------------------------- |
| Approx. total storage required per process         1599.5 MB         0.0 MB |
|                                                                             |
| Requirements will fluctuate during execution and may exceed these estimates |
+-----------------------------------------------------------------------------+
Calculating total energy with cut-off of  900.000 eV.
------------------------------------------------------------------------ <-- SCF
SCF loop      Energy           Fermi           Energy gain       Timer   <-- SCF
                               energy          per atom          (sec)   <-- SCF
------------------------------------------------------------------------ <-- SCF
Initial  -2.19135020E+005  0.00000000E+000                        20.47  <-- SCF
      1  -2.63693477E+005  7.10625663E+000   1.74739044E+002     107.27  <-- SCF
      2  -2.70654314E+005  3.65328369E+000   2.72974021E+001     189.98  <-- SCF
      3  -2.71370143E+005  3.54038520E+000   2.80717364E+000     274.07  <-- SCF
      4  -2.71426083E+005  3.65641784E+000   2.19371042E-001     353.53  <-- SCF
      5  -2.71719131E+005  6.63425546E+000   1.14920631E+000     450.04  <-- SCF
      6  -2.71508307E+005  5.53454922E+000  -8.26759237E-001     562.18  <-- SCF
      7  -2.71404317E+005  4.55930702E+000  -4.07804452E-001     662.39  <-- SCF
      8  -2.71387524E+005  4.40779460E+000  -6.58525934E-002     764.03  <-- SCF
      9  -2.71393552E+005  4.46888026E+000   2.36359961E-002     859.51  <-- SCF
     10  -2.71393542E+005  4.43365943E+000  -3.60285038E-005     957.10  <-- SCF
     11  -2.72184702E+005  6.11004014E+000   3.10258694E+000    1059.03  <-- SCF
     12  -2.72195818E+005  6.08240073E+000   4.35931746E-002    1144.35  <-- SCF
     13  -2.71503443E+005  4.80068681E+000  -2.71519860E+000    1272.26  <-- SCF
     14  -2.71418171E+005  4.26283792E+000  -3.34396989E-001    1377.78  <-- SCF
     15  -2.71395186E+005  4.22628451E+000  -9.01383495E-002    1476.68  <-- SCF
     16  -2.71391206E+005  4.29637183E+000  -1.56084175E-002    1576.74  <-- SCF
     17  -2.71388794E+005  4.34466675E+000  -9.45859117E-003    1670.66  <-- SCF
     18  -2.71386677E+005  4.36340561E+000  -8.30282233E-003    1765.18  <-- SCF
     19  -2.71385671E+005  4.35849877E+000  -3.94526039E-003    1860.54  <-- SCF
     20  -2.71385356E+005  4.35151406E+000  -1.23523475E-003    1955.31  <-- SCF
     21  -2.71385239E+005  4.34965867E+000  -4.58270864E-004    2050.93  <-- SCF
     22  -2.71385091E+005  4.35626757E+000  -5.82177227E-004    2145.11  <-- SCF
     23  -2.71385027E+005  4.36251991E+000  -2.48382259E-004    2239.56  <-- SCF
     24  -2.71384938E+005  4.36864089E+000  -3.51543949E-004    2334.90  <-- SCF
     25  -2.71384814E+005  4.37282534E+000  -4.85014784E-004    2431.92  <-- SCF
     26  -2.71384780E+005  4.37418934E+000  -1.33042326E-004    2529.42  <-- SCF
     27  -2.71384775E+005  4.37531997E+000  -1.94866948E-005    2624.97  <-- SCF
     28  -2.71384769E+005  4.37673354E+000  -2.43697449E-005    2718.71  <-- SCF
     29  -2.71384768E+005  4.37762545E+000  -4.83154368E-006    2802.06  <-- SCF
     30  -2.71384767E+005  4.37865193E+000  -2.89406477E-006    2891.17  <-- SCF
     31  -2.71384765E+005  4.37922858E+000  -6.21276330E-006    2965.05  <-- SCF
     32  -2.71384765E+005  4.37923996E+000   4.63062048E-007    3027.97  <-- SCF
     33  -2.71384765E+005  4.37929308E+000  -1.58200112E-007    3092.79  <-- SCF
------------------------------------------------------------------------ <-- SCF
 
Integrated Spin Density     =    0.174928     hbar/2                        
Integrated |Spin Density|   =    0.268445     hbar/2                        
 
Final energy, E             =  -271380.2412638     eV
Final free energy (E-TS)    =  -271384.7653107     eV
(energies not corrected for finite basis set)
 
NB est. 0K energy (E-0.5TS)      =  -271382.5032872     eV
 

Writing analysis data to castep.castep_bin

Writing model to castep.check
 
+---------------- MEMORY AND SCRATCH DISK ESTIMATES PER PROCESS --------------+
|                                                     Memory          Disk    |
| Model and support data                              750.6 MB         0.0 MB |
| Electronic energy minimisation requirements         236.0 MB         0.0 MB |
| Geometry minimisation requirements                  309.4 MB         0.0 MB |
|                                               ----------------------------- |
| Approx. total storage required per process         1296.0 MB         0.0 MB |
|                                                                             |
| Requirements will fluctuate during execution and may exceed these estimates |
+-----------------------------------------------------------------------------+
 
 
 ************************************** Forces **************************************
 *                                                                                  *
 *                           Cartesian components (eV/A)                            *
 * -------------------------------------------------------------------------------- *
 *                         x                    y                    z              *
 *                                                                                  *
 * Al              1     -0.11224             -0.00961             -0.03590         *
 * Al              2      0.04596             -0.02339             -0.00301         *
 * Al              3     -0.09928             -0.01806             -0.00837         *
 * Al              4      0.08074             -0.01062              0.00589         *
 * Al              5     -0.07755             -0.00102             -0.13889         *
 * Al              6      0.11470              0.02406              0.00685         *
 * Al              7     -0.15685              0.04198             -0.03254         *
 * Al              8      0.06616              0.01620             -0.02278         *
 * Al              9     -0.06439              0.04666             -0.00727         *
 * Al             10      0.04835              0.01228             -0.02803         *
 * Al             11     -0.03556             -0.12678              0.00360         *
 * Al             12      0.09584              0.00073             -0.01979         *
 * Al             13      0.35388              0.07603             -0.01689         *
 * Al             14      0.03801             -0.04744             -0.03222         *
 * Al             15     -0.02247              0.00734             -0.11404         *
 * Al             16      0.06854              0.03550             -0.01957         *
 * Al             17     -0.08761             -0.05966              0.00768         *
 * Al             18      0.02517              0.02795             -0.00621         *
 * Al             19     -0.05532              0.04781             -0.02332         *
 * Al             20      0.06880             -0.00493             -0.01402         *
 * Al             21     -0.05096              0.00408              0.11999         *
 * Al             22      0.12070              0.00064             -0.00403         *
 * Al             23     -0.00253              0.02520              0.10328         *
 * Al             24      0.02532             -0.00175             -0.02033         *
 * Al             25     -0.11584             -0.06974              0.01680         *
 * Al             26      0.00190             -0.02221              0.01701         *
 * Al             27     -0.12091              0.00145              0.03024         *
 * Al             28      0.07163              0.02226              0.00966         *
 * Al             29     -0.14729              0.06498              0.02392         *
 * Al             30      0.05146              0.00326              0.02152         *
 * Al             31     -0.18237              0.01092              0.02894         *
 * Al             32      0.08756             -0.02307              0.03754         *
 * Al             33      0.12115              0.08486              0.12014         *
 * Al             34      0.36772              0.15174              0.30168         *
 * Al             35     -0.01957              0.00970             -0.06740         *
 * Al             36      0.16088              0.05094              0.21735         *
 * Al             37     -0.04910             -0.29211             -0.04762         *
 * Al             38      0.04578              0.07124              0.20469         *
 * Al             39     -0.55221             -0.28282              0.53008         *
 * Al             40      0.06396             -0.22852             -0.06289         *
 * Al             41     -0.68578             -0.05654              0.59619         *
 * Al             42      0.25038              0.22651             -0.14410         *
 * Al             43     -0.14291             -0.11450             -0.07607         *
 * Al             44      0.18611             -0.19193             -0.30321         *
 * Al             45     -0.06975              0.02108              0.22527         *
 * Al             46      0.03187              0.09717             -0.25418         *
 * Al             47     -0.69852             -0.06024              0.09873         *
 * Al             48     -0.25231             -0.08954             -0.03099         *
 * Al             49      0.01733              0.17702              0.12822         *
 * Al             50     -0.28619              0.06170             -0.04435         *
 * Al             51     -0.38317              0.03452             -0.66807         *
 * Al             52     -0.13051              0.03426              0.20930         *
 * Al             53     -0.51053             -0.07574             -0.65343         *
 * Al             54      0.10987             -0.05646             -0.16796         *
 * Al             55     -0.22375             -0.14049             -0.10673         *
 * Al             56      0.00942             -0.08971             -0.10590         *
 * Al             57     -0.01088             -0.07303             -0.00041         *
 * Al             58     -0.08164              0.03995              0.13143         *
 * Al             59     -0.01985              0.09045             -0.28282         *
 * Al             60     -0.18104             -0.03455             -0.15195         *
 * Al             61     -0.00522              0.04788              0.00423         *
 * Al             62     -0.19620              0.00017              0.27872         *
 * Al             63      0.00093              0.08535             -0.00925         *
 * Ni              1     -0.03806              0.05283             -0.02357         *
 * Ni              2      0.01380             -0.00609              0.01336         *
 * Ni              3      0.01337              0.01845              0.03090         *
 * Ni              4      0.11266             -0.01419             -0.00503         *
 * Ni              5      0.16823             -0.01348             -0.02799         *
 * Ni              6      0.19612              0.03918              0.02859         *
 * Ni              7      0.12141              0.20851              0.29944         *
 * Ni              8      0.02952             -0.01007              0.01311         *
 * Ni              9      0.04297              0.00723             -0.01824         *
 * Ni             10     -0.00294              0.00032              0.02880         *
 * Ni             11      0.35176             -0.07476             -0.05114         *
 * Ni             12      0.22197              0.07742             -0.02686         *
 * Ni             13      0.09847             -0.15478              0.18160         *
 * Ni             14     -0.06036             -0.01583              0.00604         *
 * Ni             15     -0.08490             -0.02269              0.04595         *
 * Ni             16     -0.02187              0.00116             -0.01545         *
 * Ni             17      0.13290              0.11551              0.00659         *
 * Ni             18      0.12778             -0.00778             -0.16151         *
 * Ni             19      0.00205             -0.01783              0.07784         *
 * Ni             20      0.05320              0.01289              0.00749         *
 * Ni             21      0.00001             -0.00692             -0.00774         *
 * Ni             22      0.02585              0.01139             -0.01955         *
 * Ni             23      0.15435             -0.00920             -0.05430         *
 * Ni             24      0.05731             -0.10921             -0.11651         *
 * Ni             25      0.03642              0.04034              0.07902         *
 * Ni             26      0.04165              0.08725              0.01231         *
 * Ni             27      0.08282              0.00886             -0.04363         *
 * Ni             28      0.00214              0.01862             -0.05724         *
 * Ni             29      0.07208              0.07137             -0.02258         *
 * Ni             30      0.24313             -0.06835             -0.10235         *
 * Ni             31      0.17129              0.19698             -0.28909         *
 * Ni             32     -0.02530             -0.05950              0.02007         *
 * Ni             33     -0.05393              0.01917              0.01059         *
 * Ni             34     -0.05177             -0.08157             -0.01703         *
 * Ni             35      0.20209             -0.01484             -0.00011         *
 * Ni             36      0.25651              0.11103              0.05749         *
 * Ni             37      0.19774             -0.05977             -0.07108         *
 * Ni             38      0.02287             -0.03945              0.00959         *
 * Ni             39     -0.07647             -0.00186              0.02548         *
 * Ni             40     -0.01730             -0.04559             -0.01961         *
 * Ni             41      0.33609              0.05242             -0.02048         *
 * Ni             42      0.16906              0.06800             -0.07672         *
 * Ni             43      0.09127             -0.02519              0.02466         *
 * Ni             44      0.08709              0.00088             -0.00274         *
 * Ni             45     -0.03386             -0.00138              0.03862         *
 * Ni             46      0.00261              0.07508             -0.00258         *
 * Ni             47     -0.22763              0.11022              0.10678         *
 * Ni             48     -0.06564             -0.10757             -0.12198         *
 * Ni             49      0.22647             -0.05215             -0.00557         *
 * Ni             50     -0.01345             -0.01421             -0.01337         *
 * Ni             51     -0.00705              0.00775             -0.00555         *
 * Ni             52      0.05704             -0.01068              0.00766         *
 * Ni             53     -0.08312             -0.17270             -0.11233         *
 * Ni             54     -0.15892             -0.05883             -0.23536         *
 * Ni             55      0.09821              0.02741             -0.14512         *
 * Ni             56     -0.02079              0.01173             -0.03350         *
 * Ni             57      0.00040              0.00962              0.01179         *
 * Ni             58     -0.01918              0.01349             -0.03485         *
 * Ni             59     -0.01563              0.13460             -0.02184         *
 * Ni             60      0.09199             -0.14587             -0.04877         *
 * Ni             61      0.08936              0.05548             -0.16037         *
 * Ni             62     -0.00401             -0.02607             -0.01031         *
 * Ni             63     -0.11079              0.00095             -0.06175         *
 * Ni             64     -0.03754              0.01403              0.01494         *
 * Ni             65     -0.03476             -0.10781              0.11959         *
 * Ni             66      0.06798              0.03262             -0.02120         *
 * Ni             67      0.07243             -0.01544             -0.12926         *
 * Ni             68     -0.00190              0.00884             -0.01775         *
 * Ni             69     -0.04094             -0.02171             -0.02355         *
 * Ni             70     -0.00785             -0.02962             -0.00703         *
 * Ni             71     -0.30004              0.03868             -0.48737         *
 * Ni             72     -0.13930             -0.03310              0.13095         *
 * Ni             73      0.10605             -0.00708              0.03533         *
 * Ni             74      0.03220             -0.00094             -0.00518         *
 * Ni             75      0.10329             -0.00914              0.03486         *
 * Ni             76      0.01545             -0.03046              0.06209         *
 * Ni             77      0.08544             -0.05755             -0.09060         *
 * Ni             78     -0.06823              0.00982              0.10467         *
 * Ni             79      0.11921             -0.02698              0.12883         *
 * Ni             80      0.03646              0.02929              0.00472         *
 * Ni             81      0.01220              0.02694             -0.00908         *
 * Ni             82      0.00733             -0.00700             -0.01052         *
 * Ni             83      0.12749             -0.06018             -0.08886         *
 * Ni             84     -0.01205             -0.04442             -0.13330         *
 * Ni             85      0.12353             -0.00677              0.04774         *
 * Ni             86      0.00193              0.00091             -0.00715         *
 * Ni             87     -0.00796             -0.01028             -0.00770         *
 * Ni             88     -0.04859              0.02404              0.02144         *
 * Ni             89      0.12303              0.11624             -0.15499         *
 * Ni             90     -0.28113             -0.35236             -0.11880         *
 * Ni             91      0.13612              0.05061             -0.00562         *
 * Ni             92      0.01260             -0.03298              0.01841         *
 * Ni             93     -0.00001             -0.00540             -0.03642         *
 * Ni             94      0.02006              0.01187              0.01392         *
 * Ni             95     -0.13614             -0.06559              0.11116         *
 * Ni             96     -0.38303              0.27937             -0.12302         *
 * Ni             97     -0.30501              0.31435              0.00526         *
 * Ni             98      0.01839             -0.18320              0.15869         *
 * Ni             99      0.00309              0.28429              0.08920         *
 * Ni            100      0.24856              0.07821              0.20624         *
 * Ni            101     -0.22146              0.00738             -0.10572         *
 * Ni            102      0.02529             -0.08724              0.14118         *
 * Ni            103      0.08954              0.02043              0.03978         *
 * Ni            104      0.06607             -0.23763              0.40157         *
 * Ni            105     -0.02884             -0.17936              0.00490         *
 * Ni            106      0.31264             -0.05542              0.04790         *
 * Ni            107     -0.20385             -0.15704             -0.01696         *
 * Ni            108     -0.06986              0.00060              0.01382         *
 * Ni            109      0.01720             -0.00889             -0.04418         *
 * Ni            110     -0.12016             -0.17036              0.15005         *
 * Ni            111     -0.22942             -0.04545             -0.04737         *
 * Ni            112      0.02903             -0.14557             -0.03928         *
 * Ni            113      0.26162              0.13302              0.07451         *
 * Ni            114      0.01017              0.00061              0.00937         *
 * Ni            115     -0.05750              0.00608              0.14550         *
 * Ni            116      0.12447              0.23283              0.14786         *
 * Ni            117      0.06425              0.02770              0.14227         *
 * Ni            118      0.13604             -0.01005              0.12223         *
 * Ni            119      0.16725              0.12358              0.05683         *
 * Ni            120     -0.02180              0.06341             -0.26466         *
 * Ni            121     -0.12040             -0.07991              0.23676         *
 * Ni            122     -0.17200             -0.06280              0.12641         *
 * Ni            123      0.03061              0.13872             -0.15964         *
 * Ni            124      0.09024             -0.11388              0.01956         *
 * Ni            125      0.21633              0.32025             -0.13210         *
 * Ni            126     -0.26623             -0.13565              0.11357         *
 * Ni            127     -0.02306             -0.04222             -0.19874         *
 * Ni            128     -0.14661             -0.14720              0.00213         *
 * Ni            129      0.02980              0.14308             -0.12263         *
 * Ni            130      0.01906              0.09446              0.02809         *
 * Ni            131      0.06428             -0.05331              0.14167         *
 * Ni            132      0.13435             -0.02362              0.02869         *
 * Ni            133      0.10543             -0.28843             -0.15220         *
 * Ni            134     -0.12156              0.01487              0.24583         *
 * Ni            135     -0.16649              0.06718              0.13127         *
 * Ni            136     -0.09957              0.08006             -0.17291         *
 * Ni            137     -0.26454             -0.43432             -0.04959         *
 * Ni            138      0.12155              0.08390             -0.02335         *
 * Ni            139     -0.13378             -0.03810             -0.09458         *
 * Ni            140      0.12353             -0.03468             -0.00713         *
 * Ni            141     -0.13097              0.05000              0.20652         *
 * Ni            142      0.21419              0.08109             -0.08880         *
 * Ni            143      0.32506              0.36975             -0.22086         *
 * Ni            144     -0.13027             -0.03100              0.02022         *
 * Ni            145      0.19769              0.06256             -0.07137         *
 * Ni            146     -0.35705             -0.11096              0.09100         *
 * Ni            147      0.00772             -0.02909              0.12409         *
 * Ni            148      0.26401              0.09379             -0.01294         *
 * Ni            149      0.22132             -0.03174             -0.24003         *
 * Ni            150      0.07441             -0.09201              0.27468         *
 * Ni            151     -0.30467             -0.03730              0.01982         *
 * Ni            152      0.02885             -0.03160             -0.06463         *
 * Ni            153     -0.09359              0.15122             -0.26648         *
 * Ni            154      0.25503              0.21384              0.01770         *
 * Ni            155     -0.00130             -0.12923              0.05954         *
 * Ni            156     -0.04833             -0.13405             -0.29523         *
 * Ni            157      0.25008              0.05418             -0.26625         *
 * Ni            158     -0.18107              0.09013              0.23641         *
 * Ni            159     -0.16298             -0.05053              0.11599         *
 * Ni            160     -0.25878              0.18008              0.23974         *
 * Ni            161      0.01557              0.07116              0.13074         *
 * Ni            162      0.00914             -0.13377              0.07913         *
 * Ni            163      0.09167              0.06584              0.26260         *
 * Ni            164      0.31823             -0.10923             -0.09211         *
 * Ni            165     -0.32464              0.08306              0.17198         *
 * Ni            166     -0.11619             -0.00356             -0.03539         *
 * Ni            167     -0.06134             -0.17102              0.10487         *
 * Ni            168     -0.24057              0.16311              0.22679         *
 * Ni            169     -0.03191             -0.12350             -0.05501         *
 * Ni            170      0.08922              0.26945              0.00985         *
 * Ni            171      0.26820              0.12985              0.33266         *
 * Ni            172      0.28269             -0.14458              0.01806         *
 * Ni            173     -0.27638              0.25803             -0.08755         *
 * Ni            174     -0.05770              0.01032              0.10990         *
 * Ni            175      0.00362             -0.03415             -0.01675         *
 * Ni            176      0.00618             -0.05061              0.22057         *
 * Ni            177      0.06403             -0.00652             -0.17697         *
 * Ni            178      0.07979              0.07388             -0.23083         *
 * Ni            179      0.28964             -0.07144              0.07865         *
 * Ni            180     -0.07286              0.02754             -0.10856         *
 * Ni            181     -0.10010             -0.03975              0.04674         *
 * Ni            182     -0.17246             -0.16573             -0.09722         *
 * Ni            183      0.06220              0.09291              0.36277         *
 * Ni            184     -0.15012              0.16049              0.00464         *
 * Ni            185      0.14742             -0.05380              0.01808         *
 * Ni            186     -0.00893             -0.10590             -0.13808         *
 * Ni            187     -0.07182             -0.10905             -0.18497         *
 * Ni            188      0.04312              0.18624             -0.07079         *
 * Ni            189     -0.05723              0.08094              0.27606         *
 * Ni            190      0.12973             -0.02697             -0.20551         *
 * Ni            191     -0.05974              0.04019             -0.10614         *
 * Ni            192      0.08326             -0.01884             -0.13304         *
 *                                                                                  *
 ************************************************************************************
 LBFGS: finished iteration     0 with enthalpy= -2.71384765E+005 eV
  
 +-----------+-----------------+-----------------+------------+-----+ <-- LBFGS
 | Parameter |      value      |    tolerance    |    units   | OK? | <-- LBFGS
 +-----------+-----------------+-----------------+------------+-----+ <-- LBFGS
 |  dE/ion   |   0.000000E+000 |   2.000000E-005 |         eV | No  | <-- LBFGS
 |  |F|max   |   9.104539E-001 |   5.000000E-002 |       eV/A | No  | <-- LBFGS
 |  |dR|max  |   0.000000E+000 |   1.000000E-003 |          A | No  | <-- LBFGS
 +-----------+-----------------+-----------------+------------+-----+ <-- LBFGS
  

================================================================================
 Starting LBFGS iteration          1 ...
================================================================================
  
 +------------+-------------+-------------+-----------------+ <-- min LBFGS
 |    Step    |   lambda    |   F.delta'  |    enthalpy     | <-- min LBFGS
 +------------+-------------+-------------+-----------------+ <-- min LBFGS
 |  previous  |    0.000000 |    2.059626 |  -271384.765311 | <-- min LBFGS
 +------------+-------------+-------------+-----------------+ <-- min LBFGS
  

--------------------------------------------------------------------------------
 LBFGS: starting iteration         1 with trial guess (lambda=  1.000000)
--------------------------------------------------------------------------------
 
                           -------------------------------
                                     Cell Contents
                           -------------------------------
 
            xxxxxxxxxxxxxxxxxxxxxxxxxxxxxxxxxxxxxxxxxxxxxxxxxxxxxxxxxxxxxxxxx
            x  Element         Atom        Fractional coordinates of atoms  x
            x                 Number           u          v          w      x
            x---------------------------------------------------------------x
            x  Al                1         0.569792   0.308621   0.065055   x
            x  Al                2         0.817957   0.309629   0.062663   x
            x  Al                3         0.568868   0.558710   0.066467   x
            x  Al                4         0.817361   0.558385   0.063173   x
            x  Al                5         0.574848   0.809258   0.059652   x
            x  Al                6         0.818759   0.807920   0.061958   x
            x  Al                7         0.571804   0.059187   0.062778   x
            x  Al                8         0.819562   0.059520   0.061545   x
            x  Al                9         0.569814   0.306128   0.313162   x
            x  Al               10         0.819191   0.308385   0.312557   x
            x  Al               11         0.573379   0.555023   0.312599   x
            x  Al               12         0.818126   0.558918   0.312632   x
            x  Al               13         0.577696   0.814994   0.312702   x
            x  Al               14         0.819656   0.808952   0.312389   x
            x  Al               15         0.574712   0.057060   0.308728   x
            x  Al               16         0.820463   0.058868   0.312166   x
            x  Al               17         0.575820   0.302856   0.560425   x
            x  Al               18         0.818655   0.309214   0.562828   x
            x  Al               19         0.573221   0.564161   0.559738   x
            x  Al               20         0.817737   0.559165   0.562529   x
            x  Al               21         0.575172   0.809577   0.566089   x
            x  Al               22         0.819522   0.808399   0.563822   x
            x  Al               23         0.577657   0.057875   0.569197   x
            x  Al               24         0.820525   0.058410   0.564018   x
            x  Al               25         0.570999   0.309942   0.812000   x
            x  Al               26         0.817584   0.310507   0.813263   x
            x  Al               27         0.568345   0.558298   0.812775   x
            x  Al               28         0.817102   0.558173   0.813054   x
            x  Al               29         0.570294   0.808089   0.813856   x
            x  Al               30         0.819182   0.807414   0.813637   x
            x  Al               31         0.572076   0.058933   0.812503   x
            x  Al               32         0.819946   0.059404   0.814090   x
            x  Al               33         0.328878   0.183249   0.934615   x
            x  Al               34         0.056120   0.058343   0.808425   x
            x  Al               35         0.192519   0.190653   0.805024   x
            x  Al               36         0.321910   0.935690   0.939183   x
            x  Al               37         0.192758   0.929936   0.805321   x
            x  Al               38         0.318558   0.689590   0.944152   x
            x  Al               39         0.074708   0.687197   0.929726   x
            x  Al               40         0.197370   0.186624   0.572013   x
            x  Al               41         0.066197   0.807053   0.566083   x
            x  Al               42         0.325685   0.685629   0.688393   x
            x  Al               43         0.192983   0.670139   0.563440   x
            x  Al               44         0.325077   0.427603   0.687865   x
            x  Al               45         0.327575   0.555991   0.819332   x
            x  Al               46         0.198344   0.432146   0.547093   x
            x  Al               47         0.065857   0.435116   0.684587   x
            x  Al               48         0.317872   0.059846   0.311656   x
            x  Al               49         0.441057   0.056806   0.445010   x
            x  Al               50         0.185895   0.054370   0.184724   x
            x  Al               51         0.066176   0.182490   0.440917   x
            x  Al               52         0.433957   0.815759   0.439894   x
            x  Al               53         0.069835   0.945629   0.441770   x
            x  Al               54         0.200714   0.809923   0.431818   x
            x  Al               55         0.432621   0.678647   0.311024   x
            x  Al               56         0.437487   0.432531   0.545587   x
            x  Al               57         0.193424   0.425559   0.319511   x
            x  Al               58         0.187322   0.186967   0.058296   x
            x  Al               59         0.434530   0.817002   0.185162   x
            x  Al               60         0.191745   0.812308   0.187226   x
            x  Al               61         0.192085   0.426494   0.056749   x
            x  Al               62         0.191221   0.427430   0.822160   x
            x  Al               63         0.188982   0.565223   0.186225   x
            x  Ni                1         0.566321   0.431774   0.190715   x
            x  Ni                2         0.694043   0.308250   0.188475   x
            x  Ni                3         0.692559   0.433806   0.064401   x
            x  Ni                4         0.818093   0.433914   0.187951   x
            x  Ni                5         0.942854   0.309435   0.187425   x
            x  Ni                6         0.942452   0.434351   0.062638   x
            x  Ni                7         0.564277   0.687740   0.191778   x
            x  Ni                8         0.692803   0.559064   0.188563   x
            x  Ni                9         0.692862   0.682743   0.063979   x
            x  Ni               10         0.818698   0.683407   0.187582   x
            x  Ni               11         0.942583   0.558775   0.187658   x
            x  Ni               12         0.942729   0.683088   0.062491   x
            x  Ni               13         0.569262   0.932758   0.185234   x
            x  Ni               14         0.695657   0.809094   0.186540   x
            x  Ni               15         0.695865   0.934394   0.061263   x
            x  Ni               16         0.820126   0.933822   0.186388   x
            x  Ni               17         0.943014   0.808303   0.187067   x
            x  Ni               18         0.943381   0.933395   0.061954   x
            x  Ni               19         0.568782   0.183163   0.187736   x
            x  Ni               20         0.696104   0.058624   0.185898   x
            x  Ni               21         0.694106   0.184485   0.062390   x
            x  Ni               22         0.819326   0.184130   0.186962   x
            x  Ni               23         0.943453   0.058985   0.186853   x
            x  Ni               24         0.943187   0.184747   0.062219   x
            x  Ni               25         0.568753   0.432230   0.437732   x
            x  Ni               26         0.694951   0.306637   0.436531   x
            x  Ni               27         0.694414   0.432191   0.313251   x
            x  Ni               28         0.818326   0.433907   0.437614   x
            x  Ni               29         0.942757   0.309254   0.438058   x
            x  Ni               30         0.942485   0.434207   0.312803   x
            x  Ni               31         0.564630   0.689452   0.433022   x
            x  Ni               32         0.693884   0.560203   0.436676   x
            x  Ni               33         0.694222   0.684646   0.312471   x
            x  Ni               34         0.819019   0.684268   0.437538   x
            x  Ni               35         0.942427   0.559061   0.437932   x
            x  Ni               36         0.942995   0.683716   0.312640   x
            x  Ni               37         0.568768   0.935363   0.440248   x
            x  Ni               38         0.695593   0.810245   0.438395   x
            x  Ni               39         0.697776   0.935199   0.312224   x
            x  Ni               40         0.820655   0.933749   0.438365   x
            x  Ni               41         0.943395   0.808516   0.438122   x
            x  Ni               42         0.943420   0.933542   0.312395   x
            x  Ni               43         0.569810   0.177370   0.437545   x
            x  Ni               44         0.696219   0.057442   0.438265   x
            x  Ni               45         0.695582   0.182484   0.312257   x
            x  Ni               46         0.820049   0.183145   0.437589   x
            x  Ni               47         0.943899   0.058680   0.438206   x
            x  Ni               48         0.943403   0.183993   0.312442   x
            x  Ni               49         0.565902   0.434249   0.680436   x
            x  Ni               50         0.694280   0.309714   0.687656   x
            x  Ni               51         0.693786   0.433947   0.561233   x
            x  Ni               52         0.817740   0.434590   0.687739   x
            x  Ni               53         0.942812   0.309961   0.688219   x
            x  Ni               54         0.942452   0.434476   0.562993   x
            x  Ni               55         0.567172   0.683825   0.688656   x
            x  Ni               56         0.692514   0.558860   0.687205   x
            x  Ni               57         0.694391   0.684934   0.562039   x
            x  Ni               58         0.818284   0.682875   0.688400   x
            x  Ni               59         0.942521   0.558850   0.688033   x
            x  Ni               60         0.942714   0.683484   0.563280   x
            x  Ni               61         0.570610   0.933065   0.690533   x
            x  Ni               62         0.695399   0.807910   0.690081   x
            x  Ni               63         0.697366   0.933450   0.564734   x
            x  Ni               64         0.820285   0.933067   0.689602   x
            x  Ni               65         0.943318   0.807863   0.688704   x
            x  Ni               66         0.943737   0.933322   0.563824   x
            x  Ni               67         0.571004   0.183586   0.688790   x
            x  Ni               68         0.697676   0.058637   0.690688   x
            x  Ni               69         0.697803   0.182477   0.563328   x
            x  Ni               70         0.819700   0.184838   0.689223   x
            x  Ni               71         0.943581   0.058964   0.688819   x
            x  Ni               72         0.942916   0.184260   0.563498   x
            x  Ni               73         0.567338   0.434227   0.940259   x
            x  Ni               74         0.692483   0.309766   0.938378   x
            x  Ni               75         0.690879   0.434731   0.811890   x
            x  Ni               76         0.816932   0.434354   0.937926   x
            x  Ni               77         0.942814   0.310061   0.937682   x
            x  Ni               78         0.942525   0.434551   0.812977   x
            x  Ni               79         0.567598   0.683417   0.938652   x
            x  Ni               80         0.691808   0.558282   0.938813   x
            x  Ni               81         0.692946   0.682278   0.813312   x
            x  Ni               82         0.817798   0.682299   0.938118   x
            x  Ni               83         0.942485   0.558532   0.937890   x
            x  Ni               84         0.942797   0.682769   0.813198   x
            x  Ni               85         0.569132   0.934441   0.936820   x
            x  Ni               86         0.695035   0.807910   0.937022   x
            x  Ni               87         0.695599   0.933327   0.813987   x
            x  Ni               88         0.819613   0.933675   0.937532   x
            x  Ni               89         0.942999   0.807811   0.937773   x
            x  Ni               90         0.943784   0.933229   0.813425   x
            x  Ni               91         0.568109   0.183808   0.937787   x
            x  Ni               92         0.694580   0.059577   0.937412   x
[...]
            Ni 43  -- Ni 166                -0.01         0.00          2.59072
             Al 3  -- Ni 80                  0.20         0.00          2.59098
             Al 25 -- Ni 73                  0.20         0.00          2.59130
            Ni 49  -- Ni 174                 0.04        -0.00          2.59150
            Ni 107 -- Ni 108                 0.04        -0.00          2.59170
             Al 19 -- Ni 25                  0.20        -0.00          2.59201
             Al 14 -- Ni 16                  0.19         0.00          2.59205
             Al 51 -- Ni 145                 0.19        -0.00          2.59221
            Ni 13  -- Ni 120                 0.04        -0.00          2.59225
            Ni 116 -- Ni 118                 0.02         0.00          2.59241
            Ni 110 -- Ni 112                 0.05        -0.00          2.59245
            Ni 59  -- Ni 78                 -0.00         0.00          2.59337
            Ni 67  -- Ni 165                 0.03        -0.00          2.59347
             Al 34 -- Ni 162                 0.16        -0.00          2.59347
            Ni 37  -- Ni 139                -0.02        -0.00          2.59349
             Al 15 -- Ni 44                  0.20        -0.00          2.59350
            Ni 101 -- Ni 144                 0.09         0.00          2.59364
             Al 9  -- Ni 43                  0.21         0.00          2.59371
             Al 27 -- Ni 182                 0.17         0.00          2.59399
             Al 1  -- Ni 101                 0.17        -0.00          2.59402
             Al 60 -- Ni 106                 0.19         0.00          2.59409
             Al 17 -- Ni 126                 0.15        -0.00          2.59414
            Ni 150 -- Ni 178                 0.07         0.00          2.59430
            Ni 25  -- Ni 27                  0.06         0.00          2.59433
            Ni 143 -- Ni 167                 0.01         0.00          2.59452
             Al 55 -- Ni 31                  0.18         0.00          2.59477
             Al 23 -- Ni 165                 0.18        -0.00          2.59493
             Al 27 -- Ni 80                  0.19         0.00          2.59495
            Ni 29  -- Ni 72                  0.01         0.00          2.59547
             Al 47 -- Ni 150                 0.22        -0.00          2.59550
            Ni 37  -- Ni 159                -0.02         0.00          2.59554
            Ni 13  -- Ni 139                -0.01         0.00          2.59556
            Ni 35  -- Ni 129                 0.09        -0.00          2.59562
            Ni 121 -- Ni 191                 0.00        -0.00          2.59564
             Al 46 -- Ni 170                 0.17         0.00          2.59579
             Al 43 -- Ni 155                 0.19         0.00          2.59627
             Al 36 -- Ni 190                 0.17        -0.00          2.59631
             Al 60 -- Ni 113                 0.19         0.00          2.59644
            Ni 47  -- Ni 48                 -0.01         0.00          2.59652
            Ni 147 -- Ni 170                -0.03        -0.00          2.59660
             Al 22 -- Ni 62                  0.19        -0.00          2.59666
            Ni 133 -- Ni 160                -0.03         0.00          2.59673
             Al 11 -- Ni 107                 0.17         0.00          2.59681
            Ni 155 -- Ni 156                 0.06         0.00          2.59691
            Ni 71  -- Ni 96                  0.01         0.00          2.59713
             Al 46 -- Ni 149                 0.13        -0.00          2.59737
             Al 38 -- Ni 181                 0.18        -0.00          2.59745
            Ni 41  -- Ni 66                 -0.03         0.00          2.59781
            Ni 111 -- Ni 186                 0.08        -0.00          2.59781
            Ni 13  -- Ni 20                  0.06        -0.00          2.59786
            Ni 55  -- Ni 151                 0.08         0.00          2.59796
            Ni 25  -- Ni 134                -0.00         0.00          2.59818
            Ni 98  -- Ni 99                  0.01         0.00          2.59820
             Al 15 -- Ni 37                  0.19         0.00          2.59820
            Ni 99  -- Ni 169                 0.01        -0.00          2.59822
            Ni 152 -- Ni 158                 0.02         0.00          2.59978
            Ni 174 -- Ni 182                -0.00        -0.00          2.60002
             Al 41 -- Ni 129                 0.20        -0.00          2.60028
             Al 40 -- Ni 145                 0.16         0.00          2.60058
             Al 11 -- Ni 7                   0.19         0.00          2.60089
            Ni 112 -- Ni 122                 0.11         0.00          2.60089
            Ni 111 -- Ni 115                 0.04         0.00          2.60115
             Al 24 -- Ni 46                  0.18         0.00          2.60142
            Ni 117 -- Ni 122                 0.04        -0.00          2.60152
            Ni 95  -- Ni 96                  0.01        -0.00          2.60157
            Ni 100 -- Ni 103                 0.09        -0.00          2.60173
            Ni 156 -- Ni 167                 0.12        -0.00          2.60218
             Al 51 -- Ni 142                 0.17         0.00          2.60219
            Ni 53  -- Ni 78                  0.01         0.00          2.60273
            Ni 155 -- Ni 157                 0.07        -0.00          2.60298
             Al 48 -- Ni 141                 0.17         0.00          2.60306
            Ni 169 -- Ni 171                -0.00         0.00          2.60309
             Al 11 -- Ni 33                  0.19         0.00          2.60320
             Al 43 -- Ni 150                 0.17         0.00          2.60330
             Al 58 -- Ni 117                 0.15         0.00          2.60339
             Al 38 -- Ni 188                 0.17         0.00          2.60339
             Al 9  -- Ni 127                 0.16        -0.00          2.60396
             Al 16 -- Ni 40                  0.19         0.00          2.60406
            Ni 55  -- Ni 57                  0.03         0.00          2.60442
            Ni 129 -- Ni 149                 0.08         0.00          2.60446
            Ni 41  -- Ni 42                  0.03         0.00          2.60458
            Ni 53  -- Ni 54                 -0.00         0.00          2.60518
            Ni 142 -- Ni 143                 0.03         0.00          2.60543
            Ni 146 -- Ni 174                 0.01        -0.00          2.60565
             Al 45 -- Ni 150                 0.15         0.00          2.60580
            Ni 13  -- Ni 39                  0.01        -0.00          2.60611
            Ni 54  -- Ni 59                 -0.00         0.00          2.60678
            Ni 170 -- Ni 171                -0.02         0.00          2.60786
             Al 38 -- Ni 177                 0.17         0.00          2.60800
             Al 27 -- Ni 151                 0.17         0.00          2.60823
            Ni 71  -- Ni 90                  0.02         0.00          2.60859
            Ni 138 -- Ni 139                -0.02         0.00          2.60891
            Ni 169 -- Ni 172                 0.01        -0.00          2.60942
            Ni 113 -- Ni 139                 0.01        -0.00          2.60948
            Ni 172 -- Ni 177                -0.02         0.00          2.60982
            Ni 152 -- Ni 153                 0.12         0.00          2.60989
            Ni 47  -- Ni 163                 0.06         0.00          2.61062
            Ni 1   -- Ni 8                   0.03         0.00          2.61062
            Ni 138 -- Ni 159                 0.02        -0.00          2.61082
             Al 61 -- Ni 100                 0.18         0.00          2.61091
             Al 61 -- Ni 104                 0.15        -0.00          2.61096
            Ni 60  -- Ni 65                  0.01        -0.00          2.61126
            Ni 161 -- Ni 162                -0.01         0.00          2.61129
            Ni 173 -- Ni 192                -0.00        -0.00          2.61133
             Al 25 -- Ni 49                  0.19        -0.00          2.61182
            Ni 150 -- Ni 153                -0.01         0.00          2.61191
            Ni 129 -- Ni 132                 0.11         0.00          2.61254
             Al 34 -- Ni 122                 0.16         0.00          2.61271
             Al 58 -- Ni 119                 0.17         0.00          2.61350
             Al 53 -- Ni 137                 0.18        -0.00          2.61351
             Al 48 -- Ni 120                 0.18        -0.00          2.61356
             Al 63 -- Ni 100                 0.17         0.00          2.61366
            Ni 117 -- Ni 191                 0.08        -0.00          2.61384
            Ni 102 -- Ni 109                 0.00        -0.00          2.61393
             Al 44 -- Al 56                  0.30         0.00          2.61490
            Ni 65  -- Ni 148                 0.04        -0.00          2.61495
            Ni 138 -- Ni 160                 0.05        -0.00          2.61505
             Al 51 -- Ni 163                 0.16         0.00          2.61579
            Ni 121 -- Ni 173                 0.01         0.00          2.61585
            Ni 168 -- Ni 177                 0.04        -0.00          2.61586
            Ni 158 -- Ni 181                -0.01         0.00          2.61595
            Ni 152 -- Ni 160                 0.02         0.00          2.61662
            Ni 140 -- Ni 141                 0.07        -0.00          2.61687
             Al 35 -- Ni 122                 0.18        -0.00          2.61702
             Al 11 -- Ni 31                  0.19        -0.00          2.61719
            Ni 178 -- Ni 185                 0.08        -0.00          2.61734
             Al 9  -- Ni 144                 0.18         0.00          2.61753
            Ni 1   -- Ni 127                 0.02         0.00          2.61757
            Ni 110 -- Ni 118                 0.04         0.00          2.61769
            Ni 151 -- Ni 152                 0.04         0.00          2.61810
            Ni 115 -- Ni 117                 0.09        -0.00          2.61813
             Al 21 -- Ni 159                 0.15         0.00          2.61832
            Ni 26  -- Ni 43                  0.05        -0.00          2.61839
             Al 50 -- Ni 117                 0.15        -0.00          2.61907
            Ni 159 -- Ni 160                 0.09        -0.00          2.61950
            Ni 178 -- Ni 179                 0.06         0.00          2.61976
             Al 11 -- Ni 127                 0.15        -0.00          2.62037
            Ni 178 -- Ni 184                 0.03        -0.00          2.62121
            Ni 42  -- Ni 47                 -0.01         0.00          2.62122
            Ni 65  -- Ni 66                  0.01        -0.00          2.62128
             Al 27 -- Ni 49                  0.20         0.00          2.62191
             Al 58 -- Ni 122                 0.17        -0.00          2.62197
             Al 21 -- Ni 31                  0.20         0.00          2.62250
            Ni 114 -- Ni 138                 0.01        -0.00          2.62306
             Al 38 -- Ni 178                 0.16         0.00          2.62354
            Ni 158 -- Ni 160                 0.11        -0.00          2.62419
            Ni 102 -- Ni 108                 0.10         0.00          2.62435
            Ni 37  -- Ni 39                  0.01         0.00          2.62499
             Al 19 -- Ni 151                 0.17         0.00          2.62521
             Al 36 -- Ni 184                 0.18         0.00          2.62566
             Al 38 -- Ni 182                 0.16         0.00          2.62610
             Al 23 -- Ni 166                 0.15        -0.00          2.62626
            Ni 136 -- Ni 141                 0.01        -0.00          2.62642
             Al 36 -- Ni 122                 0.17        -0.00          2.62694
            Ni 25  -- Ni 126                -0.00         0.00          2.62765
             Al 19 -- Ni 31                  0.17         0.00          2.62810
             Al 46 -- Ni 145                 0.11        -0.00          2.62817
             Al 5  -- Ni 7                   0.18         0.00          2.62914
             Al 52 -- Ni 37                  0.15         0.00          2.62972
             Al 5  -- Ni 115                 0.15        -0.00          2.63008
             Al 57 -- Ni 97                  0.14        -0.00          2.63197
            Ni 154 -- Ni 155                 0.06        -0.00          2.63217
            Ni 155 -- Ni 188                 0.03        -0.00          2.63270
            Ni 156 -- Ni 157                 0.12         0.00          2.63353
             Al 40 -- Ni 143                 0.16        -0.00          2.63425
             Al 39 -- Ni 178                 0.18        -0.00          2.63434
            Ni 108 -- Ni 111                 0.02         0.00          2.63553
            Ni 123 -- Ni 124                 0.01         0.00          2.63583
            Ni 170 -- Ni 175                -0.04        -0.00          2.63887
             Al 37 -- Ni 190                 0.15         0.00          2.63916
            Ni 49  -- Ni 75                  0.05         0.00          2.64040
            Ni 114 -- Ni 133                -0.03        -0.00          2.64045
            Ni 156 -- Ni 162                 0.13         0.00          2.64053
            Ni 162 -- Ni 164                 0.01        -0.00          2.64095
            Ni 151 -- Ni 181                -0.01         0.00          2.64496
             Al 3  -- Ni 7                   0.18         0.00          2.64522
            Ni 7   -- Ni 107                 0.01         0.00          2.64523
             Al 50 -- Al 58                  0.24         0.00          2.64583
             Al 13 -- Ni 139                 0.16         0.00          2.64622
            Ni 7   -- Ni 8                   0.05        -0.00          2.64706
             Al 59 -- Ni 7                   0.15         0.00          2.64813
             Al 48 -- Al 50                  0.25        -0.00          2.64854
             Al 23 -- Ni 159                 0.13         0.00          2.64860
             Al 42 -- Ni 153                 0.15        -0.00          2.64897
             Al 33 -- Ni 122                 0.15        -0.00          2.65063
             Al 35 -- Ni 189                 0.15         0.00          2.65140
             Al 44 -- Ni 153                 0.12         0.00          2.65144
             Al 43 -- Ni 160                 0.15         0.00          2.65163
             Al 35 -- Ni 190                 0.13        -0.00          2.65206
             Al 37 -- Ni 122                 0.16         0.00          2.65315
             Al 52 -- Ni 31                  0.15         0.00          2.65479
             Al 48 -- Al 49                  0.26         0.00          2.65555
            Ni 106 -- Ni 135                -0.01         0.00          2.65646
            Ni 31  -- Ni 32                  0.04         0.00          2.65720
             Al 57 -- Ni 132                 0.11        -0.00          2.65729
            Ni 161 -- Ni 170                 0.04        -0.00          2.66197
            Ni 7   -- Ni 9                   0.06        -0.00          2.66320
             Al 38 -- Al 45                  0.23        -0.00          2.66393
             Al 42 -- Al 43                  0.25        -0.00          2.66742
             Al 50 -- Ni 119                 0.13         0.00          2.66824
             Al 23 -- Al 49                  0.24        -0.00          2.67004
            Ni 31  -- Ni 57                  0.05        -0.00          2.67094
            Ni 148 -- Ni 150                 0.08        -0.00          2.67178
            Ni 149 -- Ni 150                 0.02         0.00          2.68028
            Ni 168 -- Ni 169                 0.02         0.00          2.68294
             Al 46 -- Ni 150                 0.11         0.00          2.69275
             Al 44 -- Al 45                  0.21         0.00          2.69960
             Al 5  -- Al 59                  0.20        -0.00          2.70958
             Al 45 -- Al 62                  0.18        -0.00          2.71623
             Al 42 -- Al 45                  0.21         0.00          2.71681
            Ni 164 -- Ni 170                 0.03         0.00          2.71863
             Al 11 -- Al 55                  0.20         0.00          2.72087
             Al 36 -- Al 37                  0.22        -0.00          2.72169
             Al 56 -- Ni 146                 0.07        -0.00          2.72789
             Al 34 -- Al 35                  0.20        -0.00          2.72912
             Al 55 -- Al 59                  0.21         0.00          2.72976
             Al 56 -- Ni 151                 0.08        -0.00          2.73085
             Al 21 -- Al 52                  0.20         0.00          2.73913
             Al 33 -- Al 58                  0.20        -0.00          2.74096
             Al 34 -- Al 37                  0.19        -0.00          2.74389
             Al 44 -- Al 46                  0.21        -0.00          2.74575
             Al 61 -- Al 63                  0.20         0.00          2.74644
             Al 41 -- Al 43                  0.18        -0.00          2.74843
             Al 33 -- Al 35                  0.20         0.00          2.75054
             Al 52 -- Al 55                  0.20        -0.00          2.75371
             Al 17 -- Al 56                  0.17        -0.00          2.75667
             Al 56 -- Ni 49                  0.11         0.00          2.75722
             Al 47 -- Al 62                  0.17         0.00          2.76638
             Al 53 -- Al 54                  0.18         0.00          2.77568
             Al 40 -- Al 51                  0.20         0.00          2.77688
             Al 15 -- Al 49                  0.19         0.00          2.77757
             Al 19 -- Al 56                  0.17         0.00          2.77841
             Al 42 -- Ni 150                 0.11         0.00          2.78788
             Al 43 -- Al 54                  0.16         0.00          2.78883
             Al 57 -- Al 63                  0.15        -0.00          2.79949
             Al 41 -- Al 53                  0.17         0.00          2.80103
             Al 44 -- Al 62                  0.15        -0.00          2.81749
             Al 13 -- Al 59                  0.17         0.00          2.82904
             Al 13 -- Al 52                  0.17        -0.00          2.84168
             Al 41 -- Al 54                  0.12         0.00          2.87768
             Al 46 -- Al 47                  0.13         0.00          2.88071
             Al 13 -- Al 55                  0.08         0.00          2.94609
================================================================================
 

Writing analysis data to castep.castep_bin

Writing model to castep.check
 
 A BibTeX formatted list of references used in this run has been written to 
 castep.bib
 
Initialisation time =     13.76 s
Calculation time    =  22833.60 s
Finalisation time   =     11.31 s
Total time          =  22858.67 s
Peak Memory Use     = 2363124 kB
  
Overall parallel efficiency rating: Good (71%)                                  
  
Data was distributed by:-
G-vector (48-way); efficiency rating: Good (71%)                                
