 +-------------------------------------------------+
 |                                                 |
 |      CCC   AA    SSS  TTTTT  EEEEE  PPPP        |
 |     C     A  A  S       T    E      P   P       |
 |     C     AAAA   SS     T    EEE    PPPP        |
 |     C     A  A     S    T    E      P           |
 |      CCC  A  A  SSS     T    EEEEE  P           |
 |                                                 |
 +-------------------------------------------------+
 |                                                 |
 | Welcome to Academic Release CASTEP version 20.11|          
 | Ab Initio Total Energy Program                  |
 |                                                 |
 | Authors:                                        |
 | M. Segall, M. Probert, C. Pickard, P. Hasnip,   |
 | S. Clark, K. Refson, J. R. Yates, M. Payne      |
 |                                                 |
 | Contributors:                                   |
 | P. Lindan, P. Haynes, J. White, V. Milman,      |
 | N. Govind, M. Gibson, P. Tulip, V. Cocula,      |
 | B. Montanari, D. Quigley, M. Glover,            |
 | L. Bernasconi, A. Perlov, M. Plummer,           |
 | E. McNellis, J. Meyer, J. Gale, D. Jochym       |
 | J. Aarons, B. Walker, R. Gillen, D. Jones       |
 | T. Green, I. J. Bush, C. J. Armstrong,          |
 | E. J. Higgins, E. L. Brown, M. S. McFly,        |
 | J. Wilkins, B-C. Shih, P. J. P. Byrne,          |
 | R. J. Maurer, J. C. Womack, J. Dziedzic,        |
 | J. R. Kermode, A. Bartok-Partay                 |
 |                                                 |
 | Copyright (c) 2000 - 2020                       |
 |                                                 |
 |     Distributed under license from Cambridge    |
 |     Enterprise for academic use only.           |
 |                                                 |
 | Please cite                                     |
 |                                                 |
 |     "First principles methods using CASTEP"     |
 |                                                 |
 |         Zeitschrift fuer Kristallographie       |
 |           220(5-6) pp. 567-570 (2005)           |
 |                                                 |
 | S. J. Clark, M. D. Segall, C. J. Pickard,       |
 | P. J. Hasnip, M. J. Probert, K. Refson,         |
 | M. C. Payne                                     |
 |                                                 |
 |       in all publications arising from          |
 |              your use of CASTEP                 |
 |                                                 |
 +-------------------------------------------------+
 |                                                 |
 |              http://www.castep.org              |
 |                                                 |
 +-------------------------------------------------+
 
 
 
 Compiled for linux_x86_64_ifort on Wed, 25 Aug 2021 18:50:38 +0100
 from code version e772bf432+  HEAD  Sat Apr 3 17:41:32 2021 +0100
 Compiler: Intel Fortran 19.0.5.281; Optimisation: fast
 MATHLIBS: Intel MKL(2019.0.5) (LAPACK version 3.7.0)
 FFT Lib : mkl
 Fundamental constants values: CODATA 2014
 
 Run started: Thu, 09 Mar 2023 02:45:32 +0000
 
 Atomic calculation performed for Al: 1s2 2s2 2p6 3s2 3p1
 
 Converged in 52 iterations to an ae energy of -6606.982 eV
 
   ============================================================                
   | Pseudopotential Report - Date of generation  9-03-2023   |                
   ------------------------------------------------------------                
   | Element: Al Ionic charge:  3.00 Level of theory: RPBE    |                
   | Atomic Solver: Koelling-Harmon                           |                
   |                                                          |                
   |               Reference Electronic Structure             |                
   |         Orbital         Occupation         Energy        |                
   |            3s              2.000           -0.284        |                
   |            3p              1.000           -0.100        |                
   |                                                          |                
   |                 Pseudopotential Definition               |                
   |        Beta     l      e      Rc     scheme   norm       |                
   |          1      0   -0.284   2.192     qc      0         |                
   |          2      0    0.250   2.192     qc      0         |                
   |          3      1   -0.100   2.192     qc      0         |                
   |          4      1    0.250   2.192     qc      0         |                
   |          5      2    0.000   2.000     qc      0         |                
   |          6      2    0.250   2.000     qc      0         |                
   |         loc     3    0.000   2.192     pn      0         |                
   |                                                          |                
   | Augmentation charge Rinner = 1.398                       |                
   | Partial core correction Rc = 1.398                       |                
   ------------------------------------------------------------                
   | "3|2.2|2.2|1.4|4|5|5|30:31:32U2U2"                       |                
   ------------------------------------------------------------                
   |      Author: Chris J. Pickard, Cambridge University      |                
   ============================================================                
 
 Atomic calculation performed for Ni: 1s2 2s2 2p6 3s2 3p6 3d8 4s2
 
 Converged in 109 iterations to an ae energy of -41381.414 eV
 
   ============================================================                
   | Pseudopotential Report - Date of generation  9-03-2023   |                
   ------------------------------------------------------------                
   | Element: Ni Ionic charge: 10.00 Level of theory: RPBE    |                
   | Atomic Solver: Koelling-Harmon                           |                
   |                                                          |                
   |               Reference Electronic Structure             |                
   |         Orbital         Occupation         Energy        |                
   |            3d              8.000           -0.324        |                
   |            4s              2.000           -0.204        |                
   |                                                          |                
   |                 Pseudopotential Definition               |                
   |        Beta     l      e      Rc     scheme   norm       |                
   |          1      0   -0.204   2.401     qc      0         |                
   |          2      0    0.250   2.401     qc      0         |                
   |          3      1    0.000   2.401     qc      0         |                
   |          4      1    0.250   2.401     qc      0         |                
   |          5      2   -0.324   1.999     qc      0         |                
   |          6      2    0.250   1.999     qc      0         |                
   |         loc     3    0.000   2.401     pn      0         |                
   |                                                          |                
   | Augmentation charge Rinner = 1.001                       |                
   | Partial core correction Rc = 1.001                       |                
   ------------------------------------------------------------                
   | "3|2.4|2.4|1.0|8|9|10|40:41:32U2U2(qc=5.5)"              |                
   ------------------------------------------------------------                
   |      Author: Chris J. Pickard, Cambridge University      |                
   ============================================================                
 
 Pseudo atomic calculation performed for Al 3s2 3p1
 
 Converged in 13 iterations to a total energy of -107.6592 eV
 
 Pseudo atomic calculation performed for Ni 3d8 4s2
 
 Converged in 41 iterations to a total energy of -1369.7891 eV
 Calculation parallelised over 48 processes.
 Data is distributed by G-vector(48-way)

 ************************************ Title ************************************
 

 ***************************** General Parameters ******************************
  
 output verbosity                               : normal  (1)
 write checkpoint data to                       : castep.check
 type of calculation                            : geometry optimization
 stress calculation                             : off
 density difference calculation                 : off
 electron localisation func (ELF) calculation   : off
 Hirshfeld analysis                             : off
 molecular orbital projected DOS                : off
 deltaSCF calculation                           : off
 unlimited duration calculation
 timing information                             : on
 memory usage estimate                          : on
 write extra output files                       : on
 write final potential to formatted file        : off
 write final density to formatted file          : off
 write BibTeX reference list                    : on
 write OTFG pseudopotential files               : on
 write electrostatic potential file             : on
 write bands file                               : on
 checkpoint writing                             : both castep_bin and check files
  
 output         length unit                     : A
 output           mass unit                     : amu
 output           time unit                     : ps
 output         charge unit                     : e
 output           spin unit                     : hbar/2
 output         energy unit                     : eV
 output          force unit                     : eV/A
 output       velocity unit                     : A/ps
 output       pressure unit                     : GPa
 output     inv_length unit                     : 1/A
 output      frequency unit                     : cm-1
 output force constant unit                     : eV/A**2
 output         volume unit                     : A**3
 output   IR intensity unit                     : (D/A)**2/amu
 output         dipole unit                     : D
 output         efield unit                     : eV/A/e
 output        entropy unit                     : J/mol/K
 output    efield chi2 unit                     : pm/V
  
 wavefunctions paging                           : none
 random number generator seed                   : randomised (24532169)
 data distribution                              : optimal for this architecture
 optimization strategy                          : maximize speed(+++)

 *********************** Exchange-Correlation Parameters ***********************
  
 using functional                               : revised Perdew Burke Ernzerhof
 relativistic treatment                         : Koelling-Harmon
 DFT+D: Semi-empirical dispersion correction    : off

 ************************* Pseudopotential Parameters **************************
  
 pseudopotential representation                 : reciprocal space
 <beta|phi> representation                      : reciprocal space
 spin-orbit coupling                            : off

 **************************** Basis Set Parameters *****************************
  
 plane wave basis set cut-off                   :   900.0000   eV
 size of standard grid                          :     1.7500
 size of   fine   gmax                          :    26.8966   1/A
 finite basis set correction                    : none

 **************************** Electronic Parameters ****************************
  
 number of  electrons                           :  2109.    
 net charge of system                           :  0.000    
 net spin   of system                           :  1.000    
 number of  up  spins                           :  1055.    
 number of down spins                           :  1054.    
 treating system as spin-polarized
 number of bands                                :       1167

 ********************* Electronic Minimization Parameters **********************
  
 Method: Treating system as metallic with density mixing treatment of electrons,
         and number of  SD  steps               :          1
         and number of  CG  steps               :          4
  
 total energy / atom convergence tol.           : 0.1000E-05   eV
 eigen-energy convergence tolerance             : 0.2185E-06   eV
 max force / atom convergence tol.              : ignored
 convergence tolerance window                   :          3   cycles
 max. number of SCF cycles                      :        200
 number of fixed-spin iterations                :         10
 smearing scheme                                : Gaussian
 smearing width                                 : 0.2000       eV
 Fermi energy convergence tolerance             : 0.2721E-13   eV
 periodic dipole correction                     : NONE
 periodically dump wavefunctions to             : castep.wvfn
 dump wavefunctions every                       :          1   SCF cycles

 ************************** Density Mixing Parameters **************************
  
 density-mixing scheme                          : Pulay
 max. length of mixing history                  :         20
 charge density mixing amplitude                : 0.8000    
   spin density mixing amplitude                :  2.000    
 cut-off energy for mixing                      :  900.0       eV

 *********************** Population Analysis Parameters ************************
  
 Population analysis with cutoff                :  3.000       A
 Population analysis output                     : summary and pdos components

 ********************** Geometry Optimization Parameters ***********************
  
 optimization method                            : LBFGS
 max. no. of LBFGS updates                      : unbounded
 variable cell method                           : fixed basis quality
 max. number of steps                           :         30
 estimated bulk modulus                         :  500.0       GPa
 estimated <frequency>                          :  1668.       cm-1
 geom line minimiser                            : on
 with line minimiser tolerance                  :     0.4000
  with spin fully able to relax for all steps
 total energy convergence tolerance             : 0.2000E-04   eV/atom
        max ionic |force| tolerance             : 0.5000E-01   eV/A
 max ionic |displacement| tolerance             : 0.1000E-02   A
   max |stress component| tolerance             : 0.1000       GPa
 convergence tolerance window                   :          2   steps
 backup results every                           :          5   steps
 write geom trajectory file                     : on

 *******************************************************************************
  
 
                           -------------------------------
                                      Unit Cell
                           -------------------------------
        Real Lattice(A)                      Reciprocal Lattice(1/A)
    14.4648280     0.0000000     0.0000000        0.434376773   0.000000000   0.000000000
     0.0000000    14.4648280     0.0000000        0.000000000   0.434376773   0.000000000
     0.0000000     0.0000000    14.4648280        0.000000000   0.000000000   0.434376773
 
                       Lattice parameters(A)       Cell Angles
                    a =     14.464828          alpha =   90.000000
                    b =     14.464828          beta  =   90.000000
                    c =     14.464828          gamma =   90.000000
 
                       Current cell volume =          3026.494030       A**3
                                   density =             4.285146   AMU/A**3
                                           =             7.115653     g/cm^3
 
                           -------------------------------
                                     Cell Contents
                           -------------------------------
                         Total number of ions in cell =  255
                      Total number of species in cell =    2
                        Max number of any one species =  192
 
            xxxxxxxxxxxxxxxxxxxxxxxxxxxxxxxxxxxxxxxxxxxxxxxxxxxxxxxxxxxx
            x  Element    Atom        Fractional coordinates of atoms  x
            x            Number           u          v          w      x
            x----------------------------------------------------------x
            x  Al           1         0.570541   0.186020   0.189223   x 
            x  Al           2         0.818659   0.187088   0.187643   x 
            x  Al           3         0.569901   0.437648   0.190255   x 
            x  Al           4         0.818089   0.436941   0.187986   x 
            x  Al           5         0.574766   0.687722   0.184931   x 
            x  Al           6         0.818898   0.686337   0.187275   x 
            x  Al           7         0.571719   0.936577   0.188206   x 
            x  Al           8         0.819655   0.937055   0.186992   x 
            x  Al           9         0.569868   0.184914   0.436204   x 
            x  Al          10         0.818595   0.186593   0.437729   x 
            x  Al          11         0.573760   0.433942   0.435480   x 
            x  Al          12         0.817644   0.436860   0.437795   x 
            x  Al          13         0.576155   0.691036   0.437829   x 
            x  Al          14         0.819087   0.686745   0.437889   x 
            x  Al          15         0.573860   0.935712   0.434009   x 
            x  Al          16         0.819589   0.936832   0.437700   x 
            x  Al          17         0.572375   0.185021   0.686358   x 
            x  Al          18         0.817625   0.187604   0.687734   x 
            x  Al          19         0.570220   0.437953   0.686255   x 
            x  Al          20         0.816725   0.436750   0.687521   x 
            x  Al          21         0.574303   0.686973   0.690515   x 
            x  Al          22         0.818516   0.685888   0.688332   x 
            x  Al          23         0.576803   0.936202   0.693409   x 
            x  Al          24         0.819378   0.936852   0.688417   x 
            x  Al          25         0.571838   0.186967   0.939153   x 
            x  Al          26         0.817775   0.187954   0.938175   x 
            x  Al          27         0.569293   0.437044   0.939828   x 
            x  Al          28         0.817388   0.436546   0.938019   x 
            x  Al          29         0.570456   0.686579   0.938547   x 
            x  Al          30         0.819093   0.685745   0.937993   x 
            x  Al          31         0.572126   0.936560   0.937292   x 
            x  Al          32         0.819742   0.937175   0.938420   x 
            x  Al          33         0.328559   0.060865   0.059610   x 
            x  Al          34         0.056309   0.935916   0.932355   x 
            x  Al          35         0.192773   0.068368   0.929844   x 
            x  Al          36         0.321654   0.813733   0.063803   x 
            x  Al          37         0.192897   0.807945   0.929135   x 
            x  Al          38         0.318224   0.568445   0.068913   x 
            x  Al          39         0.074284   0.566283   0.053927   x 
            x  Al          40         0.198241   0.066870   0.696785   x 
            x  Al          41         0.067332   0.683695   0.690017   x 
            x  Al          42         0.325699   0.562357   0.813008   x 
            x  Al          43         0.193357   0.545329   0.687776   x 
            x  Al          44         0.330966   0.306343   0.809702   x 
            x  Al          45         0.327748   0.433704   0.945166   x 
            x  Al          46         0.190552   0.311312   0.680680   x 
            x  Al          47         0.063020   0.313644   0.812952   x 
            x  Al          48         0.317684   0.938952   0.436919   x 
            x  Al          49         0.440320   0.935853   0.569625   x 
            x  Al          50         0.186160   0.932886   0.310155   x 
            x  Al          51         0.068042   0.063064   0.565913   x 
            x  Al          52         0.433320   0.691144   0.563712   x 
            x  Al          53         0.071312   0.823247   0.566602   x 
            x  Al          54         0.201835   0.686331   0.556675   x 
            x  Al          55         0.425370   0.549026   0.434966   x 
            x  Al          56         0.328950   0.310756   0.558306   x 
            x  Al          57         0.185690   0.303188   0.436555   x 
            x  Al          58         0.187106   0.064424   0.182444   x 
            x  Al          59         0.434175   0.693611   0.310938   x 
            x  Al          60         0.191851   0.689818   0.312221   x 
            x  Al          61         0.191150   0.304629   0.180630   x 
            x  Al          62         0.191936   0.305486   0.946824   x 
            x  Al          63         0.189054   0.443812   0.309700   x 
            x  Ni           1         0.568355   0.310312   0.312168   x 
            x  Ni           2         0.694612   0.186046   0.312603   x 
            x  Ni           3         0.694022   0.311844   0.188568   x 
            x  Ni           4         0.818335   0.311999   0.312710   x 
            x  Ni           5         0.942682   0.187284   0.312665   x 
            x  Ni           6         0.942653   0.312314   0.187635   x 
            x  Ni           7         0.563556   0.565749   0.316443   x 
            x  Ni           8         0.693509   0.437643   0.312484   x 
            x  Ni           9         0.693334   0.561665   0.188884   x 
            x  Ni          10         0.818847   0.561763   0.312754   x 
            x  Ni          11         0.942449   0.436922   0.312811   x 
            x  Ni          12         0.942867   0.561492   0.187532   x 
            x  Ni          13         0.568617   0.810383   0.310999   x 
            x  Ni          14         0.695241   0.687002   0.312053   x 
            x  Ni          15         0.695834   0.812336   0.186785   x 
            x  Ni          16         0.819795   0.811686   0.312152   x 
            x  Ni          17         0.942963   0.686420   0.312504   x 
            x  Ni          18         0.943288   0.811402   0.187198   x 
            x  Ni          19         0.568763   0.061100   0.312146   x 
            x  Ni          20         0.695718   0.936342   0.311557   x 
            x  Ni          21         0.694633   0.061619   0.187499   x 
            x  Ni          22         0.819261   0.061781   0.312359   x 
            x  Ni          23         0.943237   0.936808   0.312402   x 
            x  Ni          24         0.943228   0.062321   0.187399   x 
            x  Ni          25         0.449067   0.310432   0.685188   x 
            x  Ni          26         0.693241   0.185556   0.561747   x 
            x  Ni          27         0.694255   0.310514   0.437141   x 
            x  Ni          28         0.817347   0.312004   0.562737   x 
            x  Ni          29         0.942314   0.187408   0.563069   x 
            x  Ni          30         0.942069   0.312237   0.437943   x 
            x  Ni          31         0.563200   0.565481   0.557744   x 
            x  Ni          32         0.692039   0.437570   0.561981   x 
            x  Ni          33         0.694000   0.562251   0.437480   x 
            x  Ni          34         0.818122   0.561625   0.562861   x 
            x  Ni          35         0.942050   0.436875   0.562996   x 
            x  Ni          36         0.942612   0.561604   0.437945   x 
            x  Ni          37         0.567569   0.812759   0.564739   x 
            x  Ni          38         0.694348   0.687321   0.563397   x 
            x  Ni          39         0.696438   0.812615   0.437675   x 
            x  Ni          40         0.819651   0.811646   0.563303   x 
            x  Ni          41         0.942834   0.686318   0.563220   x 
            x  Ni          42         0.943099   0.811507   0.437822   x 
            x  Ni          43         0.568680   0.057619   0.562641   x 
            x  Ni          44         0.694769   0.935996   0.563154   x 
            x  Ni          45         0.694914   0.061086   0.437330   x 
            x  Ni          46         0.818955   0.061713   0.562761   x 
            x  Ni          47         0.943265   0.936804   0.563222   x 
            x  Ni          48         0.942934   0.062036   0.437795   x 
            x  Ni          49         0.568316   0.312121   0.812369   x 
            x  Ni          50         0.693642   0.187579   0.813103   x 
            x  Ni          51         0.692245   0.311951   0.686885   x 
            x  Ni          52         0.817208   0.312491   0.812777   x 
            x  Ni          53         0.942498   0.187913   0.812881   x 
            x  Ni          54         0.942040   0.312453   0.687915   x 
            x  Ni          55         0.567368   0.561642   0.814076   x 
            x  Ni          56         0.692096   0.436843   0.812879   x 
            x  Ni          57         0.692429   0.561447   0.686904   x 
            x  Ni          58         0.817785   0.560792   0.812781   x 
            x  Ni          59         0.942206   0.436775   0.812747   x 
            x  Ni          60         0.942397   0.561252   0.688048   x 
            x  Ni          61         0.570124   0.811059   0.814752   x 
            x  Ni          62         0.694922   0.685823   0.814284   x 
            x  Ni          63         0.696411   0.811337   0.689044   x 
            x  Ni          64         0.819745   0.811101   0.813695   x 
            x  Ni          65         0.942936   0.685904   0.812989   x 
            x  Ni          66         0.943090   0.811338   0.688360   x 
            x  Ni          67         0.570922   0.061648   0.813744   x 
            x  Ni          68         0.697060   0.936733   0.814832   x 
            x  Ni          69         0.695903   0.061906   0.688067   x 
            x  Ni          70         0.819077   0.062882   0.813522   x 
            x  Ni          71         0.943160   0.936983   0.813116   x 
            x  Ni          72         0.942553   0.062445   0.688135   x 
            x  Ni          73         0.568125   0.312114   0.065978   x 
            x  Ni          74         0.693530   0.187002   0.063825   x 
            x  Ni          75         0.692400   0.312551   0.938645   x 
            x  Ni          76         0.817883   0.312273   0.063029   x 
            x  Ni          77         0.942921   0.187684   0.062515   x 
            x  Ni          78         0.942406   0.312447   0.937684   x 
            x  Ni          79         0.568168   0.562530   0.063543   x 
            x  Ni          80         0.692899   0.436942   0.064080   x 
            x  Ni          81         0.693423   0.560950   0.938333   x 
            x  Ni          82         0.818229   0.561045   0.063022   x 
            x  Ni          83         0.942644   0.436818   0.062683   x 
            x  Ni          84         0.942652   0.561071   0.937734   x 
            x  Ni          85         0.569147   0.812506   0.061866   x 
            x  Ni          86         0.695306   0.686543   0.062008   x 
            x  Ni          87         0.695493   0.811386   0.938387   x 
            x  Ni          88         0.819655   0.811717   0.062380   x 
            x  Ni          89         0.943003   0.686114   0.062524   x 
            x  Ni          90         0.943577   0.811340   0.937804   x 
            x  Ni          91         0.568439   0.060782   0.063326   x 
            x  Ni          92         0.694810   0.937030   0.062493   x 
            x  Ni          93         0.694742   0.062398   0.938762   x 
            x  Ni          94         0.819135   0.062460   0.062753   x 
            x  Ni          95         0.943691   0.936990   0.062400   x 
            x  Ni          96         0.943234   0.062759   0.937784   x 
            x  Ni          97         0.070077   0.308990   0.307939   x 
            x  Ni          98         0.191215   0.184294   0.309142   x 
            x  Ni          99         0.064021   0.183557   0.183503   x 
            x  Ni         100         0.311164   0.314090   0.313882   x 
            x  Ni         101         0.442642   0.185165   0.313321   x 
            x  Ni         102         0.316189   0.435893   0.186270   x 
            x  Ni         103         0.319755   0.183944   0.187650   x 
            x  Ni         104         0.065371   0.439248   0.181636   x 
            x  Ni         105         0.065643   0.566042   0.311601   x 
            x  Ni         106         0.314177   0.562679   0.306601   x 
            x  Ni         107         0.440715   0.436554   0.310807   x 
            x  Ni         108         0.444658   0.565164   0.189896   x 
            x  Ni         109         0.189315   0.565246   0.185087   x 
            x  Ni         110         0.066170   0.812562   0.310817   x 
            x  Ni         111         0.316609   0.691451   0.187120   x 
            x  Ni         112         0.190108   0.814792   0.182676   x 
            x  Ni         113         0.314015   0.816702   0.310312   x 
            x  Ni         114         0.318437   0.688196   0.434705   x 
            x  Ni         115         0.444745   0.813767   0.187293   x 
            x  Ni         116         0.065328   0.058954   0.308898   x 
            x  Ni         117         0.315810   0.939797   0.184784   x 
            x  Ni         118         0.066746   0.936467   0.180832   x 
            x  Ni         119         0.314607   0.058483   0.310704   x 
            x  Ni         120         0.443144   0.935451   0.312655   x 
            x  Ni         121         0.444725   0.060635   0.188764   x 
            x  Ni         122         0.193173   0.939289   0.053176   x 
            x  Ni         123         0.064575   0.309059   0.562261   x 
            x  Ni         124         0.193322   0.185121   0.563249   x 
            x  Ni         125         0.063002   0.182045   0.436316   x 
            x  Ni         126         0.447399   0.183612   0.559987   x 
            x  Ni         127         0.442409   0.314178   0.433743   x 
            x  Ni         128         0.319501   0.185519   0.436077   x 
            x  Ni         129         0.072084   0.561737   0.564287   x 
            x  Ni         130         0.196058   0.430393   0.555023   x 
            x  Ni         131         0.195174   0.559728   0.435802   x 
            x  Ni         132         0.066555   0.436618   0.435732   x 
            x  Ni         133         0.316388   0.556916   0.564266   x 
            x  Ni         134         0.568073   0.310385   0.560336   x 
            x  Ni         135         0.445673   0.436781   0.559908   x 
            x  Ni         136         0.067091   0.938785   0.438253   x 
            x  Ni         137         0.071280   0.691276   0.441282   x 
            x  Ni         138         0.315384   0.815718   0.564634   x 
            x  Ni         139         0.443770   0.814327   0.438947   x 
            x  Ni         140         0.191706   0.815618   0.438148   x 
            x  Ni         141         0.195075   0.942381   0.565708   x 
            x  Ni         142         0.190939   0.062544   0.435731   x 
            x  Ni         143         0.318147   0.062405   0.563930   x 
            x  Ni         144         0.443633   0.057759   0.437665   x 
            x  Ni         145         0.064517   0.187501   0.689059   x 
            x  Ni         146         0.450115   0.185035   0.811952   x 
            x  Ni         147         0.322668   0.189287   0.685456   x 
            x  Ni         148         0.066598   0.556789   0.813201   x 
            x  Ni         149         0.064429   0.434177   0.687900   x 
            x  Ni         150         0.198563   0.426324   0.816799   x 
            x  Ni         151         0.446218   0.436854   0.813198   x 
            x  Ni         152         0.445278   0.562696   0.685862   x 
            x  Ni         153         0.322343   0.431254   0.687789   x 
            x  Ni         154         0.065250   0.810046   0.810697   x 
            x  Ni         155         0.193402   0.680620   0.808788   x 
            x  Ni         156         0.191959   0.811286   0.689660   x 
            x  Ni         157         0.318466   0.810142   0.812770   x 
            x  Ni         158         0.445777   0.687345   0.811327   x 
            x  Ni         159         0.444208   0.811384   0.689400   x 
            x  Ni         160         0.316236   0.683760   0.688217   x 
            x  Ni         161         0.065274   0.064358   0.811333   x 
            x  Ni         162         0.191589   0.937771   0.815458   x 
            x  Ni         163         0.068550   0.940523   0.690512   x 
            x  Ni         164         0.320842   0.065340   0.814234   x 
            x  Ni         165         0.446208   0.936418   0.811470   x 
            x  Ni         166         0.445457   0.061108   0.688586   x 
            x  Ni         167         0.318275   0.938295   0.692093   x 
            x  Ni         168         0.065634   0.309681   0.060089   x 
            x  Ni         169         0.194478   0.180993   0.060414   x 
            x  Ni         170         0.193959   0.195960   0.811895   x 
            x  Ni         171         0.063236   0.186979   0.933556   x 
            x  Ni         172         0.320022   0.309686   0.063898   x 
            x  Ni         173         0.447508   0.186188   0.064535   x 
            x  Ni         174         0.447504   0.310827   0.939874   x 
            x  Ni         175         0.323577   0.187702   0.937854   x 
            x  Ni         176         0.067095   0.689581   0.182940   x 
            x  Ni         177         0.193600   0.436873   0.062336   x 
            x  Ni         178         0.199436   0.558599   0.935051   x 
            x  Ni         179         0.065620   0.435728   0.937135   x 
            x  Ni         180         0.441982   0.310289   0.190702   x 
            x  Ni         181         0.443506   0.562520   0.940624   x 
            x  Ni         182         0.445134   0.438136   0.068521   x 
            x  Ni         183         0.068207   0.810822   0.054842   x 
            x  Ni         184         0.194799   0.690115   0.058888   x 
            x  Ni         185         0.066634   0.685582   0.932242   x 
            x  Ni         186         0.444903   0.688892   0.064657   x 
            x  Ni         187         0.444662   0.812354   0.937056   x 
            x  Ni         188         0.321194   0.687455   0.937329   x 
            x  Ni         189         0.066268   0.060978   0.055289   x 
            x  Ni         190         0.320432   0.936706   0.935539   x 
            x  Ni         191         0.446184   0.935896   0.062536   x 
            x  Ni         192         0.446913   0.061086   0.936490   x 
            xxxxxxxxxxxxxxxxxxxxxxxxxxxxxxxxxxxxxxxxxxxxxxxxxxxxxxxxxxxx
 
 
                         No user defined ionic velocities
 
                           -------------------------------
                                   Details of Species
                           -------------------------------
 
                               Mass of species in AMU
                                    Al   26.9815400
                                    Ni   58.6934000
 
                          Electric Quadrupole Moment (Barn)
                                    Al    0.1466000 Isotope 27
                                    Ni    0.1620000 Isotope 61
 
                          Files used for pseudopotentials:
                                    Al 3|2.2|2.2|1.4|4|5|5|30:31:32U2U2
                                    Ni 3|2.4|2.4|1.0|8|9|10|40:41:32U2U2(qc=5.5)
 
                           -------------------------------
                              k-Points For BZ Sampling
                           -------------------------------
                       MP grid size for SCF calculation is  1  1  1
                            with an offset of   0.000  0.000  0.000
                       Number of kpoints used =             1
 
                           -------------------------------
                               Symmetry and Constraints
                           -------------------------------
 
                      Maximum deviation from symmetry =  0.00000         ANG
 
                      Number of symmetry operations   =           1
                      Number of ionic constraints     =           3
                      Point group of crystal =     1: C1, 1, 1
                      Space group of crystal =     1: P1, P 1
 
             Set iprint > 1 for details on symmetry rotations/translations
 
                         Centre of mass is constrained
             Set iprint > 1 for details of linear ionic constraints
 
                         Number of cell constraints= 6
                         Cell constraints are:  0 0 0 0 0 0
 
                         External pressure/stress (GPa)
                          0.00000   0.00000   0.00000
                                    0.00000   0.00000
                                              0.00000
  
+---------------- MEMORY AND SCRATCH DISK ESTIMATES PER PROCESS --------------+
|                                                     Memory          Disk    |
| Baseline code, static data and system overhead      622.0 MB         0.0 MB |
| BLAS internal memory storage                          0.0 MB         0.0 MB |
| Model and support data                              741.5 MB         0.0 MB |
| Electronic energy minimisation requirements         236.0 MB         0.0 MB |
| Force calculation requirements                        7.9 MB         0.0 MB |
|                                               ----------------------------- |
| Approx. total storage required per process         1599.5 MB         0.0 MB |
|                                                                             |
| Requirements will fluctuate during execution and may exceed these estimates |
+-----------------------------------------------------------------------------+
Calculating total energy with cut-off of  900.000 eV.
------------------------------------------------------------------------ <-- SCF
SCF loop      Energy           Fermi           Energy gain       Timer   <-- SCF
                               energy          per atom          (sec)   <-- SCF
------------------------------------------------------------------------ <-- SCF
Initial  -2.19148831E+005  0.00000000E+000                        20.56  <-- SCF
      1  -2.63688776E+005  7.10793984E+000   1.74666452E+002     107.03  <-- SCF
      2  -2.70651875E+005  3.64259013E+000   2.73062705E+001     191.35  <-- SCF
      3  -2.71370399E+005  3.53612185E+000   2.81773986E+000     274.97  <-- SCF
      4  -2.71426422E+005  3.64982885E+000   2.19700483E-001     352.08  <-- SCF
      5  -2.71710142E+005  6.62225829E+000   1.11262427E+000     448.19  <-- SCF
      6  -2.71508354E+005  5.52888565E+000  -7.91325241E-001     560.68  <-- SCF
      7  -2.71403334E+005  4.53788558E+000  -4.11840689E-001     659.81  <-- SCF
      8  -2.71386645E+005  4.41119816E+000  -6.54468199E-002     760.38  <-- SCF
      9  -2.71398140E+005  4.48613445E+000   4.50751143E-002     856.74  <-- SCF
     10  -2.71397445E+005  4.45189417E+000  -2.72566580E-003     956.09  <-- SCF
     11  -2.72304291E+005  6.19267677E+000   3.55626136E+000    1057.47  <-- SCF
     12  -2.72317619E+005  6.16209156E+000   5.22659472E-002    1141.45  <-- SCF
     13  -2.71508102E+005  4.81370153E+000  -3.17457636E+000    1270.63  <-- SCF
     14  -2.71581899E+005  4.83184712E+000   2.89399459E-001    1354.15  <-- SCF
     15  -2.71433550E+005  4.30244262E+000  -5.81759925E-001    1458.00  <-- SCF
     16  -2.71398985E+005  4.20697880E+000  -1.35549805E-001    1557.29  <-- SCF
     17  -2.71392723E+005  4.25666941E+000  -2.45551500E-002    1649.39  <-- SCF
     18  -2.71390327E+005  4.32057121E+000  -9.39580065E-003    1742.08  <-- SCF
     19  -2.71387799E+005  4.35053955E+000  -9.91348170E-003    1835.76  <-- SCF
     20  -2.71386121E+005  4.35296959E+000  -6.58067962E-003    1928.93  <-- SCF
     21  -2.71385776E+005  4.34838896E+000  -1.35597054E-003    2024.69  <-- SCF
     22  -2.71385594E+005  4.34258445E+000  -7.10781379E-004    2118.01  <-- SCF
     23  -2.71385386E+005  4.34463536E+000  -8.18787999E-004    2212.45  <-- SCF
     24  -2.71385291E+005  4.35703557E+000  -3.72480094E-004    2304.88  <-- SCF
     25  -2.71385222E+005  4.36307284E+000  -2.69674114E-004    2398.97  <-- SCF
     26  -2.71385103E+005  4.36814525E+000  -4.67315416E-004    2493.08  <-- SCF
     27  -2.71385012E+005  4.37015083E+000  -3.55736605E-004    2588.74  <-- SCF
     28  -2.71385000E+005  4.37152288E+000  -4.87430203E-005    2684.83  <-- SCF
     29  -2.71384982E+005  4.37532949E+000  -6.76013540E-005    2778.90  <-- SCF
     30  -2.71384980E+005  4.37573082E+000  -9.44934109E-006    2868.18  <-- SCF
     31  -2.71384981E+005  4.37615849E+000   4.97376027E-006    2954.00  <-- SCF
     32  -2.71384978E+005  4.37722923E+000  -1.06661490E-005    3042.71  <-- SCF
     33  -2.71384978E+005  4.37734715E+000  -2.50306097E-007    3104.80  <-- SCF
     34  -2.71384978E+005  4.37737828E+000   3.66970469E-007    3166.46  <-- SCF
------------------------------------------------------------------------ <-- SCF
 
Integrated Spin Density     =    0.145325     hbar/2                        
Integrated |Spin Density|   =    0.224384     hbar/2                        
 
Final energy, E             =  -271380.4212147     eV
Final free energy (E-TS)    =  -271384.9784725     eV
(energies not corrected for finite basis set)
 
NB est. 0K energy (E-0.5TS)      =  -271382.6998436     eV
 

Writing analysis data to castep.castep_bin

Writing model to castep.check
 
+---------------- MEMORY AND SCRATCH DISK ESTIMATES PER PROCESS --------------+
|                                                     Memory          Disk    |
| Model and support data                              750.6 MB         0.0 MB |
| Electronic energy minimisation requirements         236.0 MB         0.0 MB |
| Geometry minimisation requirements                  309.4 MB         0.0 MB |
|                                               ----------------------------- |
| Approx. total storage required per process         1296.0 MB         0.0 MB |
|                                                                             |
| Requirements will fluctuate during execution and may exceed these estimates |
+-----------------------------------------------------------------------------+
 
 
 ************************************** Forces **************************************
 *                                                                                  *
 *                           Cartesian components (eV/A)                            *
 * -------------------------------------------------------------------------------- *
 *                         x                    y                    z              *
 *                                                                                  *
 * Al              1     -0.11861              0.00127             -0.02618         *
 * Al              2      0.03125             -0.02930             -0.00587         *
 * Al              3     -0.14807             -0.02258              0.05894         *
 * Al              4      0.07219             -0.00411             -0.00221         *
 * Al              5     -0.08307             -0.00191             -0.14371         *
 * Al              6      0.11581              0.02379              0.00584         *
 * Al              7     -0.15758              0.03750             -0.02957         *
 * Al              8      0.06543              0.01546             -0.02472         *
 * Al              9     -0.13046              0.07991              0.00104         *
 * Al             10      0.05141              0.00940             -0.02501         *
 * Al             11     -0.17526             -0.11042              0.00379         *
 * Al             12      0.09582             -0.00036             -0.01345         *
 * Al             13      0.36171              0.07486             -0.01327         *
 * Al             14      0.05141             -0.03064             -0.03530         *
 * Al             15     -0.00907              0.00626             -0.12160         *
 * Al             16      0.08668              0.01922             -0.02492         *
 * Al             17     -0.16951             -0.02441              0.00886         *
 * Al             18      0.04185              0.01988             -0.00282         *
 * Al             19     -0.17608             -0.02719             -0.02330         *
 * Al             20      0.07945              0.00898             -0.00546         *
 * Al             21     -0.03024              0.01508              0.13293         *
 * Al             22      0.11751             -0.00533             -0.00015         *
 * Al             23      0.01488              0.01709              0.12765         *
 * Al             24      0.02597             -0.00410             -0.01554         *
 * Al             25     -0.11443             -0.06272             -0.01205         *
 * Al             26     -0.00657             -0.01515              0.01027         *
 * Al             27     -0.11756              0.00916              0.01138         *
 * Al             28      0.07265              0.02380             -0.00190         *
 * Al             29     -0.15448              0.05580              0.01404         *
 * Al             30      0.04962             -0.00177              0.01539         *
 * Al             31     -0.18518              0.01351              0.01674         *
 * Al             32      0.08862             -0.02769              0.03026         *
 * Al             33      0.13377              0.12144              0.14405         *
 * Al             34      0.32189              0.15528              0.29433         *
 * Al             35     -0.02618             -0.00155             -0.07443         *
 * Al             36      0.16266              0.04399              0.21899         *
 * Al             37     -0.04607             -0.29332             -0.04593         *
 * Al             38      0.05354              0.08300              0.17283         *
 * Al             39     -0.54705             -0.28699              0.53676         *
 * Al             40      0.13599             -0.19832             -0.04015         *
 * Al             41     -0.75913             -0.03055              0.60537         *
 * Al             42      0.20954              0.29927             -0.06712         *
 * Al             43     -0.06963             -0.16806             -0.05794         *
 * Al             44      0.14705             -0.19466             -0.17248         *
 * Al             45     -0.04369              0.02126              0.17609         *
 * Al             46     -0.11005              0.12121             -0.14838         *
 * Al             47     -0.61242             -0.07922              0.04341         *
 * Al             48     -0.24192             -0.07116             -0.02012         *
 * Al             49      0.00859              0.18253              0.14648         *
 * Al             50     -0.30597              0.04384             -0.05293         *
 * Al             51     -0.50016             -0.09825             -0.66251         *
 * Al             52     -0.13606              0.03506              0.18721         *
 * Al             53     -0.60481             -0.02582             -0.65448         *
 * Al             54      0.11277             -0.08359             -0.18199         *
 * Al             55     -0.29798             -0.24664             -0.06725         *
 * Al             56      0.23332              0.08815             -0.12959         *
 * Al             57     -0.19672             -0.13162             -0.10634         *
 * Al             58     -0.08419              0.02267              0.13204         *
 * Al             59     -0.01566              0.05203             -0.26602         *
 * Al             60     -0.17652             -0.03261             -0.12522         *
 * Al             61      0.04447              0.07476              0.02478         *
 * Al             62     -0.16124             -0.01623              0.25856         *
 * Al             63      0.03058              0.11443             -0.00913         *
 * Ni              1     -0.01070              0.06968             -0.05302         *
 * Ni              2      0.00684             -0.00951              0.01510         *
 * Ni              3      0.03288              0.02285              0.00533         *
 * Ni              4      0.10098             -0.01101             -0.00596         *
 * Ni              5      0.13158             -0.04983             -0.06432         *
 * Ni              6      0.09957              0.05488             -0.05592         *
 * Ni              7      0.10952              0.17933              0.25776         *
 * Ni              8      0.03448             -0.02404              0.01611         *
 * Ni              9      0.03285              0.00350             -0.02506         *
 * Ni             10     -0.00381              0.00266              0.02850         *
 * Ni             11      0.32332             -0.03971             -0.07903         *
 * Ni             12      0.20035              0.10827             -0.02987         *
 * Ni             13      0.10934             -0.14929              0.17835         *
 * Ni             14     -0.04937             -0.00607             -0.00028         *
 * Ni             15     -0.08212             -0.02576              0.03594         *
 * Ni             16     -0.02205              0.00036             -0.01453         *
 * Ni             17      0.16959              0.11765              0.02920         *
 * Ni             18      0.13445             -0.00487             -0.14508         *
 * Ni             19      0.00774             -0.01774              0.09347         *
 * Ni             20      0.05211              0.00581              0.00239         *
 * Ni             21     -0.00407             -0.00342             -0.00833         *
 * Ni             22      0.02681              0.01277             -0.02080         *
 * Ni             23      0.19497             -0.01401             -0.03917         *
 * Ni             24      0.02972             -0.14555             -0.13888         *
 * Ni             25      0.13130             -0.02012              0.01776         *
 * Ni             26      0.10234              0.05429             -0.00731         *
 * Ni             27      0.01743             -0.00210             -0.00159         *
 * Ni             28      0.02531              0.02165             -0.05829         *
 * Ni             29      0.06594              0.05380              0.00098         *
 * Ni             30      0.21279             -0.06294             -0.12773         *
 * Ni             31      0.15432              0.26428             -0.24789         *
 * Ni             32      0.03347             -0.04315             -0.00050         *
 * Ni             33     -0.06737              0.03125             -0.00402         *
 * Ni             34     -0.03439             -0.07109             -0.02196         *
 * Ni             35      0.20655              0.01388             -0.02159         *
 * Ni             36      0.27904              0.10691              0.05469         *
 * Ni             37      0.21805             -0.03726             -0.06542         *
 * Ni             38      0.03060             -0.02437              0.00100         *
 * Ni             39     -0.07185              0.00926              0.01732         *
 * Ni             40     -0.01673             -0.04403             -0.02623         *
 * Ni             41      0.41386              0.01540             -0.05058         *
 * Ni             42      0.27631              0.03681             -0.05533         *
 * Ni             43      0.10223             -0.12066             -0.00219         *
 * Ni             44      0.09401             -0.00445             -0.00822         *
 * Ni             45     -0.02809             -0.01884              0.02744         *
 * Ni             46      0.01736              0.07242             -0.01017         *
 * Ni             47     -0.08553              0.13365              0.10071         *
 * Ni             48     -0.06081             -0.14448             -0.10678         *
 * Ni             49      0.13958             -0.05161              0.04830         *
 * Ni             50      0.03162             -0.02137              0.00004         *
 * Ni             51      0.03449              0.00856             -0.01047         *
 * Ni             52      0.06765             -0.00880              0.00255         *
 * Ni             53     -0.11654             -0.22586             -0.08790         *
 * Ni             54     -0.17191             -0.05079             -0.22647         *
 * Ni             55      0.12454              0.06921             -0.13197         *
 * Ni             56      0.02869              0.02953             -0.01423         *
 * Ni             57      0.00946              0.00489              0.02431         *
 * Ni             58     -0.01851              0.02582             -0.03152         *
 * Ni             59     -0.07855              0.19641             -0.02025         *
 * Ni             60      0.11486             -0.13468             -0.06125         *
 * Ni             61      0.09207              0.05278             -0.15645         *
 * Ni             62      0.00407             -0.02039              0.00025         *
 * Ni             63     -0.10629             -0.00509             -0.04930         *
 * Ni             64     -0.03050              0.01382              0.01882         *
 * Ni             65      0.00937             -0.10448              0.08421         *
 * Ni             66      0.14528              0.02776             -0.04705         *
 * Ni             67      0.09092             -0.06751             -0.11167         *
 * Ni             68      0.00545              0.00168             -0.00565         *
 * Ni             69     -0.03560             -0.02385             -0.02529         *
 * Ni             70     -0.00490             -0.03411             -0.00152         *
 * Ni             71     -0.23911              0.03515             -0.50015         *
 * Ni             72     -0.08736             -0.04417              0.11277         *
 * Ni             73      0.10626              0.00080              0.04518         *
 * Ni             74      0.03333             -0.00273              0.00146         *
 * Ni             75      0.04054             -0.00899             -0.00551         *
 * Ni             76     -0.00113             -0.02829              0.04925         *
 * Ni             77      0.04233             -0.07362             -0.12182         *
 * Ni             78     -0.17264              0.01054              0.19478         *
 * Ni             79      0.12593             -0.04807              0.13381         *
 * Ni             80      0.03521              0.03297              0.00894         *
 * Ni             81      0.00864              0.02728             -0.00254         *
 * Ni             82      0.00159             -0.00850             -0.00389         *
 * Ni             83      0.06629             -0.04306             -0.10746         *
 * Ni             84     -0.03197             -0.01788             -0.13832         *
 * Ni             85      0.12375             -0.00631              0.04733         *
 * Ni             86      0.00230             -0.00534             -0.00589         *
 * Ni             87     -0.01160             -0.01241             -0.00233         *
 * Ni             88     -0.05123              0.02729              0.02064         *
 * Ni             89      0.12483              0.13163             -0.15955         *
 * Ni             90     -0.24404             -0.35334             -0.14654         *
 * Ni             91      0.12999              0.05702             -0.00831         *
 * Ni             92      0.01249             -0.03112              0.01528         *
 * Ni             93     -0.00348             -0.00343             -0.02543         *
 * Ni             94      0.01243              0.01172              0.01781         *
 * Ni             95     -0.12237             -0.08071              0.09712         *
 * Ni             96     -0.37547              0.25924             -0.12800         *
 * Ni             97     -0.19487              0.35459              0.10839         *
 * Ni             98      0.05014             -0.13216              0.19729         *
 * Ni             99      0.07056              0.29172              0.15512         *
 * Ni            100      0.16528             -0.03266             -0.02103         *
 * Ni            101     -0.24538              0.02606             -0.04135         *
 * Ni            102      0.06648             -0.11384              0.30866         *
 * Ni            103      0.07472             -0.03659              0.00406         *
 * Ni            104      0.10592             -0.24851              0.44224         *
 * Ni            105     -0.03240             -0.20883              0.05774         *
 * Ni            106      0.35505             -0.06277              0.02182         *
 * Ni            107     -0.07700             -0.08263             -0.11498         *
 * Ni            108     -0.07532             -0.01591              0.03374         *
 * Ni            109      0.04383             -0.02464              0.00286         *
 * Ni            110     -0.15601             -0.16638              0.15039         *
 * Ni            111     -0.23530              0.01082             -0.10410         *
 * Ni            112      0.03397             -0.14653             -0.04061         *
 * Ni            113      0.27304              0.15399              0.05581         *
 * Ni            114     -0.02845             -0.09474              0.01761         *
 * Ni            115     -0.06806              0.00044              0.13795         *
 * Ni            116      0.12142              0.22534              0.17486         *
 * Ni            117      0.07182              0.03663              0.12755         *
 * Ni            118      0.12891             -0.00340              0.13158         *
 * Ni            119      0.16482              0.08290              0.02425         *
 * Ni            120     -0.03145              0.05197             -0.26707         *
 * Ni            121     -0.10608             -0.07811              0.24600         *
 * Ni            122     -0.17167             -0.05717              0.14409         *
 * Ni            123     -0.01357              0.18871             -0.17255         *
 * Ni            124      0.07901              0.03052             -0.03809         *
 * Ni            125      0.20914              0.28973             -0.08457         *
 * Ni            126     -0.24843             -0.11356              0.12584         *
 * Ni            127      0.08598             -0.22814             -0.17424         *
 * Ni            128     -0.19217              0.06166             -0.03021         *
 * Ni            129     -0.00915              0.14482             -0.12723         *
 * Ni            130     -0.04210             -0.13618              0.06291         *
 * Ni            131     -0.12857              0.10137              0.12894         *
 * Ni            132      0.24852             -0.01465              0.04816         *
 * Ni            133      0.12789             -0.01611             -0.02169         *
 * Ni            134      0.10757              0.08110             -0.09044         *
 * Ni            135     -0.03528              0.06618              0.30661         *
 * Ni            136     -0.17539              0.05159             -0.13845         *
 * Ni            137     -0.40798             -0.33084             -0.02175         *
 * Ni            138      0.12590              0.09756             -0.01199         *
 * Ni            139     -0.12847             -0.04337             -0.08757         *
 * Ni            140      0.11373             -0.01346             -0.00697         *
 * Ni            141     -0.12905              0.08058              0.20451         *
 * Ni            142      0.16515             -0.00340             -0.12142         *
 * Ni            143      0.32043              0.15017             -0.23612         *
 * Ni            144     -0.09183             -0.02672              0.05078         *
 * Ni            145      0.20416              0.04165             -0.10744         *
 * Ni            146     -0.30786             -0.12067              0.13071         *
 * Ni            147      0.00474             -0.03543              0.07445         *
 * Ni            148      0.25509              0.10983             -0.03367         *
 * Ni            149      0.15787             -0.04812             -0.15456         *
 * Ni            150     -0.00627             -0.09670              0.26751         *
 * Ni            151     -0.33677             -0.03914              0.01716         *
 * Ni            152      0.01584             -0.04344             -0.08633         *
 * Ni            153      0.01724              0.16253             -0.27463         *
 * Ni            154      0.18905              0.21963              0.03016         *
 * Ni            155     -0.00429             -0.11812              0.06943         *
 * Ni            156     -0.04671             -0.13837             -0.28041         *
 * Ni            157      0.25742              0.05197             -0.24310         *
 * Ni            158     -0.19190              0.10706              0.23148         *
 * Ni            159     -0.15422             -0.04251              0.10885         *
 * Ni            160     -0.22750              0.21134              0.25706         *
 * Ni            161     -0.01198              0.05931              0.11086         *
 * Ni            162      0.00032             -0.13412              0.08855         *
 * Ni            163      0.01136              0.06009              0.25017         *
 * Ni            164      0.30628             -0.13386             -0.05856         *
 * Ni            165     -0.31880              0.05842              0.16474         *
 * Ni            166     -0.11371             -0.00718             -0.00982         *
 * Ni            167     -0.06672             -0.15282              0.10616         *
 * Ni            168     -0.19237              0.16353              0.23233         *
 * Ni            169     -0.02717             -0.12756             -0.04589         *
 * Ni            170      0.03559              0.29325             -0.02039         *
 * Ni            171      0.30607              0.10644              0.31742         *
 * Ni            172      0.27889             -0.14995              0.01490         *
 * Ni            173     -0.27504              0.26642             -0.10182         *
 * Ni            174     -0.07561             -0.00588              0.09819         *
 * Ni            175      0.02171             -0.05083             -0.00025         *
 * Ni            176      0.00096             -0.06744              0.22545         *
 * Ni            177      0.05743             -0.01901             -0.19656         *
 * Ni            178      0.07886              0.08204             -0.22836         *
 * Ni            179      0.33523             -0.07450              0.05509         *
 * Ni            180     -0.08644              0.02154             -0.11290         *
 * Ni            181     -0.10288             -0.07775              0.00187         *
 * Ni            182     -0.18006             -0.17082             -0.11475         *
 * Ni            183      0.04515              0.10376              0.35532         *
 * Ni            184     -0.14592              0.15456              0.01026         *
 * Ni            185      0.13675             -0.04725              0.01393         *
 * Ni            186     -0.01280             -0.10234             -0.15160         *
 * Ni            187     -0.06667             -0.10994             -0.18319         *
 * Ni            188      0.04990              0.18482             -0.07260         *
 * Ni            189     -0.05725              0.09660              0.28679         *
 * Ni            190      0.12175             -0.02402             -0.21014         *
 * Ni            191     -0.05358              0.03721             -0.10542         *
 * Ni            192      0.08300              0.03033             -0.18493         *
 *                                                                                  *
 ************************************************************************************
 LBFGS: finished iteration     0 with enthalpy= -2.71384978E+005 eV
  
 +-----------+-----------------+-----------------+------------+-----+ <-- LBFGS
 | Parameter |      value      |    tolerance    |    units   | OK? | <-- LBFGS
 +-----------+-----------------+-----------------+------------+-----+ <-- LBFGS
 |  dE/ion   |   0.000000E+000 |   2.000000E-005 |         eV | No  | <-- LBFGS
 |  |F|max   |   9.714364E-001 |   5.000000E-002 |       eV/A | No  | <-- LBFGS
 |  |dR|max  |   0.000000E+000 |   1.000000E-003 |          A | No  | <-- LBFGS
 +-----------+-----------------+-----------------+------------+-----+ <-- LBFGS
  

================================================================================
 Starting LBFGS iteration          1 ...
================================================================================
  
 +------------+-------------+-------------+-----------------+ <-- min LBFGS
 |    Step    |   lambda    |   F.delta'  |    enthalpy     | <-- min LBFGS
 +------------+-------------+-------------+-----------------+ <-- min LBFGS
 |  previous  |    0.000000 |    2.079355 |  -271384.978473 | <-- min LBFGS
 +------------+-------------+-------------+-----------------+ <-- min LBFGS
  

--------------------------------------------------------------------------------
 LBFGS: starting iteration         1 with trial guess (lambda=  1.000000)
--------------------------------------------------------------------------------
 
                           -------------------------------
                                     Cell Contents
                           -------------------------------
 
            xxxxxxxxxxxxxxxxxxxxxxxxxxxxxxxxxxxxxxxxxxxxxxxxxxxxxxxxxxxxxxxxx
            x  Element         Atom        Fractional coordinates of atoms  x
            x                 Number           u          v          w      x
            x---------------------------------------------------------------x
            x  Al                1         0.570525   0.186020   0.189219   x
            x  Al                2         0.818663   0.187084   0.187643   x
            x  Al                3         0.569881   0.437645   0.190263   x
            x  Al                4         0.818098   0.436941   0.187986   x
            x  Al                5         0.574755   0.687722   0.184912   x
            x  Al                6         0.818913   0.686340   0.187275   x
            x  Al                7         0.571698   0.936582   0.188202   x
            x  Al                8         0.819663   0.937057   0.186988   x
            x  Al                9         0.569851   0.184924   0.436204   x
            x  Al               10         0.818601   0.186594   0.437725   x
            x  Al               11         0.573737   0.433928   0.435481   x
            x  Al               12         0.817656   0.436859   0.437793   x
            x  Al               13         0.576203   0.691045   0.437827   x
            x  Al               14         0.819094   0.686740   0.437884   x
            x  Al               15         0.573858   0.935713   0.433993   x
            x  Al               16         0.819601   0.936835   0.437696   x
            x  Al               17         0.572352   0.185018   0.686359   x
            x  Al               18         0.817630   0.187607   0.687734   x
            x  Al               19         0.570196   0.437950   0.686252   x
            x  Al               20         0.816735   0.436751   0.687520   x
            x  Al               21         0.574299   0.686975   0.690533   x
            x  Al               22         0.818532   0.685887   0.688332   x
            x  Al               23         0.576805   0.936205   0.693426   x
            x  Al               24         0.819382   0.936852   0.688415   x
            x  Al               25         0.571823   0.186958   0.939152   x
            x  Al               26         0.817774   0.187952   0.938176   x
            x  Al               27         0.569277   0.437046   0.939829   x
            x  Al               28         0.817398   0.436549   0.938019   x
            x  Al               29         0.570435   0.686587   0.938548   x
            x  Al               30         0.819100   0.685744   0.937995   x
            x  Al               31         0.572101   0.936561   0.937294   x
            x  Al               32         0.819754   0.937171   0.938424   x
            x  Al               33         0.328577   0.060881   0.059629   x
            x  Al               34         0.056351   0.935937   0.932394   x
            x  Al               35         0.192770   0.068367   0.929834   x
            x  Al               36         0.321675   0.813738   0.063832   x
            x  Al               37         0.192891   0.807906   0.929129   x
            x  Al               38         0.318231   0.568456   0.068936   x
            x  Al               39         0.074211   0.566245   0.053999   x
            x  Al               40         0.198259   0.066844   0.696779   x
            x  Al               41         0.067232   0.683691   0.690098   x
            x  Al               42         0.325727   0.562397   0.812999   x
            x  Al               43         0.193348   0.545307   0.687768   x
            x  Al               44         0.330985   0.306317   0.809679   x
            x  Al               45         0.327742   0.433707   0.945189   x
            x  Al               46         0.190537   0.311328   0.680660   x
            x  Al               47         0.062939   0.313633   0.812957   x
            x  Al               48         0.317652   0.938942   0.436917   x
            x  Al               49         0.440321   0.935877   0.569645   x
            x  Al               50         0.186120   0.932892   0.310148   x
            x  Al               51         0.067975   0.063051   0.565825   x
            x  Al               52         0.433302   0.691149   0.563737   x
            x  Al               53         0.071231   0.823243   0.566515   x
            x  Al               54         0.201850   0.686320   0.556651   x
            x  Al               55         0.425331   0.548993   0.434957   x
            x  Al               56         0.328981   0.310768   0.558289   x
            x  Al               57         0.185663   0.303171   0.436541   x
            x  Al               58         0.187095   0.064427   0.182461   x
            x  Al               59         0.434173   0.693618   0.310902   x
            x  Al               60         0.191827   0.689813   0.312205   x
            x  Al               61         0.191156   0.304638   0.180633   x
            x  Al               62         0.191914   0.305484   0.946858   x
            x  Al               63         0.189059   0.443827   0.309699   x
            x  Ni                1         0.568353   0.310321   0.312161   x
            x  Ni                2         0.694613   0.186045   0.312605   x
            x  Ni                3         0.694026   0.311847   0.188569   x
            x  Ni                4         0.818348   0.311998   0.312709   x
            x  Ni                5         0.942700   0.187278   0.312656   x
            x  Ni                6         0.942666   0.312321   0.187628   x
            x  Ni                7         0.563570   0.565772   0.316477   x
            x  Ni                8         0.693514   0.437640   0.312486   x
            x  Ni                9         0.693339   0.561665   0.188881   x
            x  Ni               10         0.818847   0.561763   0.312758   x
            x  Ni               11         0.942492   0.436917   0.312800   x
            x  Ni               12         0.942893   0.561506   0.187529   x
            x  Ni               13         0.568632   0.810363   0.311022   x
            x  Ni               14         0.695235   0.687001   0.312053   x
            x  Ni               15         0.695823   0.812332   0.186790   x
            x  Ni               16         0.819792   0.811686   0.312150   x
            x  Ni               17         0.942986   0.686435   0.312508   x
            x  Ni               18         0.943306   0.811401   0.187179   x
            x  Ni               19         0.568764   0.061098   0.312158   x
            x  Ni               20         0.695725   0.936342   0.311558   x
            x  Ni               21         0.694632   0.061618   0.187498   x
            x  Ni               22         0.819265   0.061783   0.312356   x
            x  Ni               23         0.943263   0.936806   0.312396   x
            x  Ni               24         0.943232   0.062301   0.187380   x
            x  Ni               25         0.449085   0.310430   0.685190   x
            x  Ni               26         0.693254   0.185564   0.561746   x
            x  Ni               27         0.694258   0.310514   0.437141   x
            x  Ni               28         0.817350   0.312007   0.562729   x
            x  Ni               29         0.942322   0.187415   0.563069   x
            x  Ni               30         0.942097   0.312228   0.437926   x
            x  Ni               31         0.563221   0.565516   0.557712   x
            x  Ni               32         0.692043   0.437564   0.561981   x
            x  Ni               33         0.693991   0.562255   0.437480   x
            x  Ni               34         0.818118   0.561615   0.562858   x
            x  Ni               35         0.942077   0.436877   0.562993   x
            x  Ni               36         0.942649   0.561618   0.437952   x
            x  Ni               37         0.567598   0.812754   0.564730   x
            x  Ni               38         0.694352   0.687318   0.563397   x
            x  Ni               39         0.696428   0.812616   0.437677   x
            x  Ni               40         0.819649   0.811640   0.563299   x
            x  Ni               41         0.942889   0.686320   0.563214   x
            x  Ni               42         0.943136   0.811511   0.437815   x
            x  Ni               43         0.568694   0.057603   0.562641   x
            x  Ni               44         0.694781   0.935995   0.563153   x
            x  Ni               45         0.694910   0.061084   0.437333   x
            x  Ni               46         0.818957   0.061723   0.562759   x
            x  Ni               47         0.943253   0.936821   0.563236   x
            x  Ni               48         0.942926   0.062017   0.437781   x
            x  Ni               49         0.568334   0.312114   0.812375   x
            x  Ni               50         0.693647   0.187576   0.813103   x
            x  Ni               51         0.692250   0.311953   0.686884   x
            x  Ni               52         0.817216   0.312490   0.812777   x
            x  Ni               53         0.942482   0.187883   0.812870   x
            x  Ni               54         0.942017   0.312446   0.687885   x
            x  Ni               55         0.567385   0.561651   0.814059   x
            x  Ni               56         0.692100   0.436847   0.812877   x
            x  Ni               57         0.692430   0.561448   0.686907   x
            x  Ni               58         0.817782   0.560795   0.812776   x
            x  Ni               59         0.942196   0.436802   0.812744   x
            x  Ni               60         0.942413   0.561234   0.688040   x
            x  Ni               61         0.570136   0.811066   0.814732   x
            x  Ni               62         0.694923   0.685820   0.814284   x
            x  Ni               63         0.696397   0.811336   0.689037   x
            x  Ni               64         0.819741   0.811103   0.813697   x
            x  Ni               65         0.942937   0.685890   0.813000   x
            x  Ni               66         0.943109   0.811342   0.688354   x
            x  Ni               67         0.570934   0.061639   0.813729   x
            x  Ni               68         0.697060   0.936733   0.814831   x
            x  Ni               69         0.695899   0.061903   0.688064   x
            x  Ni               70         0.819076   0.062878   0.813522   x
            x  Ni               71         0.943128   0.936988   0.813050   x
            x  Ni               72         0.942541   0.062439   0.688150   x
            x  Ni               73         0.568139   0.312114   0.065984   x
            x  Ni               74         0.693534   0.187002   0.063825   x
            x  Ni               75         0.692405   0.312549   0.938644   x
            x  Ni               76         0.817883   0.312269   0.063036   x
            x  Ni               77         0.942927   0.187674   0.062499   x
            x  Ni               78         0.942383   0.312448   0.937710   x
            x  Ni               79         0.568185   0.562524   0.063561   x
            x  Ni               80         0.692903   0.436946   0.064081   x
            x  Ni               81         0.693424   0.560954   0.938333   x
            x  Ni               82         0.818229   0.561044   0.063021   x
            x  Ni               83         0.942653   0.436812   0.062669   x
            x  Ni               84         0.942648   0.561069   0.937716   x
            x  Ni               85         0.569164   0.812505   0.061872   x
            x  Ni               86         0.695307   0.686542   0.062007   x
            x  Ni               87         0.695491   0.811385   0.938386   x
            x  Ni               88         0.819648   0.811720   0.062383   x
            x  Ni               89         0.943020   0.686132   0.062503   x
            x  Ni               90         0.943545   0.811293   0.937785   x
            x  Ni               91         0.568456   0.060789   0.063325   x
[...]
             Al 20 -- Ni 35                  0.17         0.00          2.58640
            Ni 29  -- Ni 72                  0.01        -0.00          2.58653
            Ni 129 -- Ni 149                 0.11         0.00          2.58655
             Al 27 -- Ni 182                 0.17        -0.00          2.58705
             Al 33 -- Ni 169                 0.18         0.00          2.58721
            Ni 151 -- Ni 181                -0.03         0.00          2.58732
            Ni 101 -- Ni 144                 0.10         0.00          2.58762
             Al 15 -- Ni 144                 0.18         0.00          2.58790
            Ni 131 -- Ni 137                -0.02         0.00          2.58791
             Al 49 -- Ni 37                  0.17         0.00          2.58798
             Al 36 -- Ni 190                 0.18         0.00          2.58808
             Al 36 -- Ni 188                 0.19         0.00          2.58813
             Al 21 -- Ni 37                  0.20        -0.00          2.58833
             Al 15 -- Ni 44                  0.20        -0.00          2.58843
            Ni 138 -- Ni 139                -0.01         0.00          2.58853
            Ni 121 -- Ni 191                 0.00         0.00          2.58854
            Ni 12  -- Ni 89                  0.03        -0.00          2.58877
             Al 51 -- Ni 142                 0.18        -0.00          2.58882
            Ni 129 -- Ni 132                 0.12        -0.00          2.58944
            Ni 34  -- Ni 41                  0.06         0.00          2.58963
            Ni 90  -- Ni 95                  0.01        -0.00          2.58978
             Al 25 -- Ni 73                  0.20         0.00          2.58979
            Ni 37  -- Ni 38                  0.07        -0.00          2.58983
            Ni 183 -- Ni 185                 0.07        -0.00          2.59000
            Ni 55  -- Ni 181                 0.07         0.00          2.59022
            Ni 1   -- Ni 8                   0.03        -0.00          2.59040
            Ni 151 -- Ni 174                -0.05         0.00          2.59041
             Al 60 -- Ni 112                 0.17        -0.00          2.59051
             Al 16 -- Ni 40                  0.19        -0.00          2.59057
            Ni 1   -- Ni 101                 0.04        -0.00          2.59063
             Al 22 -- Ni 62                  0.20        -0.00          2.59082
             Al 61 -- Ni 100                 0.19        -0.00          2.59113
            Ni 29  -- Ni 48                  0.02        -0.00          2.59114
            Ni 113 -- Ni 114                 0.03        -0.00          2.59127
             Al 43 -- Ni 150                 0.18        -0.00          2.59137
            Ni 13  -- Ni 139                -0.00         0.00          2.59144
            Ni 152 -- Ni 158                 0.02         0.00          2.59183
             Al 22 -- Ni 57                  0.20        -0.00          2.59193
             Al 23 -- Ni 37                  0.20        -0.00          2.59214
            Ni 116 -- Ni 118                 0.02        -0.00          2.59225
             Al 38 -- Ni 181                 0.19        -0.00          2.59243
            Ni 110 -- Ni 112                 0.05        -0.00          2.59281
             Al 45 -- Ni 150                 0.16         0.00          2.59305
            Ni 71  -- Ni 96                  0.01         0.00          2.59313
             Al 38 -- Ni 102                 0.18        -0.00          2.59317
            Ni 106 -- Ni 114                -0.03         0.00          2.59325
             Al 40 -- Ni 124                 0.19        -0.00          2.59325
            Ni 142 -- Ni 143                 0.05         0.00          2.59333
             Al 51 -- Ni 124                 0.19        -0.00          2.59337
             Al 46 -- Ni 153                 0.14        -0.00          2.59338
            Ni 35  -- Ni 129                 0.10         0.00          2.59367
            Ni 99  -- Ni 169                 0.01         0.00          2.59416
             Al 19 -- Ni 151                 0.19        -0.00          2.59425
            Ni 155 -- Ni 156                 0.06        -0.00          2.59453
            Ni 13  -- Ni 120                 0.04         0.00          2.59455
             Al 40 -- Ni 163                 0.16        -0.00          2.59455
            Ni 41  -- Ni 66                 -0.03        -0.00          2.59477
            Ni 150 -- Ni 178                 0.08        -0.00          2.59528
            Ni 41  -- Ni 42                  0.03        -0.00          2.59546
             Al 40 -- Ni 145                 0.17         0.00          2.59548
            Ni 138 -- Ni 159                 0.02         0.00          2.59591
            Ni 113 -- Ni 139                 0.01         0.00          2.59632
             Al 60 -- Ni 113                 0.19        -0.00          2.59651
            Ni 169 -- Ni 171                -0.00         0.00          2.59662
            Ni 60  -- Ni 65                  0.01         0.00          2.59663
            Ni 146 -- Ni 147                 0.08         0.00          2.59703
            Ni 68  -- Ni 69                  0.02         0.00          2.59719
            Ni 128 -- Ni 144                 0.14         0.00          2.59721
            Ni 13  -- Ni 39                  0.01        -0.00          2.59740
            Ni 112 -- Ni 122                 0.11        -0.00          2.59780
            Ni 123 -- Ni 124                 0.01        -0.00          2.59793
            Ni 114 -- Ni 140                 0.05         0.00          2.59820
            Ni 111 -- Ni 186                 0.08        -0.00          2.59823
            Ni 105 -- Ni 131                 0.03        -0.00          2.59865
            Ni 25  -- Ni 146                -0.01         0.00          2.59869
             Al 15 -- Ni 37                  0.19        -0.00          2.59903
             Al 38 -- Ni 188                 0.17         0.00          2.59954
             Al 34 -- Ni 162                 0.16        -0.00          2.59964
             Al 9  -- Ni 144                 0.18         0.00          2.60025
            Ni 106 -- Ni 131                 0.08        -0.00          2.60079
             Al 17 -- Ni 49                  0.19        -0.00          2.60170
            Ni 95  -- Ni 96                  0.01        -0.00          2.60241
             Al 58 -- Ni 117                 0.15         0.00          2.60252
            Ni 13  -- Ni 20                  0.06        -0.00          2.60278
            Ni 100 -- Ni 101                 0.07        -0.00          2.60336
             Al 50 -- Ni 142                 0.15        -0.00          2.60394
            Ni 159 -- Ni 160                 0.10        -0.00          2.60418
            Ni 161 -- Ni 162                -0.00        -0.00          2.60435
            Ni 59  -- Ni 78                 -0.01        -0.00          2.60436
             Al 19 -- Ni 134                 0.19        -0.00          2.60508
             Al 41 -- Ni 129                 0.19         0.00          2.60524
             Al 9  -- Ni 43                  0.20        -0.00          2.60562
            Ni 47  -- Ni 163                 0.06        -0.00          2.60602
            Ni 152 -- Ni 153                 0.10         0.00          2.60647
            Ni 25  -- Ni 151                -0.01         0.00          2.60673
            Ni 146 -- Ni 174                 0.01         0.00          2.60676
            Ni 71  -- Ni 90                  0.02         0.00          2.60709
            Ni 130 -- Ni 153                -0.00         0.00          2.60764
            Ni 117 -- Ni 122                 0.03        -0.00          2.60777
            Ni 53  -- Ni 54                 -0.00        -0.00          2.60809
             Al 51 -- Ni 163                 0.16        -0.00          2.60840
             Al 21 -- Ni 159                 0.16         0.00          2.60862
             Al 48 -- Ni 120                 0.19         0.00          2.60885
            Ni 26  -- Ni 43                  0.07        -0.00          2.60891
             Al 49 -- Ni 139                 0.17         0.00          2.60917
            Ni 178 -- Ni 185                 0.08         0.00          2.60930
            Ni 173 -- Ni 192                -0.00         0.00          2.60961
            Ni 169 -- Ni 172                 0.01        -0.00          2.61042
            Ni 155 -- Ni 157                 0.07         0.00          2.61059
            Ni 158 -- Ni 160                 0.11        -0.00          2.61090
             Al 61 -- Ni 104                 0.16         0.00          2.61102
            Ni 170 -- Ni 171                -0.02        -0.00          2.61105
             Al 58 -- Ni 122                 0.18        -0.00          2.61148
             Al 53 -- Ni 137                 0.18        -0.00          2.61195
            Ni 138 -- Ni 160                 0.05         0.00          2.61220
            Ni 54  -- Ni 59                  0.00        -0.00          2.61238
            Ni 156 -- Ni 167                 0.11        -0.00          2.61246
             Al 38 -- Ni 177                 0.17         0.00          2.61281
            Ni 121 -- Ni 173                 0.01         0.00          2.61311
            Ni 65  -- Ni 66                  0.02         0.00          2.61342
            Ni 117 -- Ni 191                 0.08        -0.00          2.61344
            Ni 151 -- Ni 152                 0.03         0.00          2.61371
            Ni 37  -- Ni 39                  0.01         0.00          2.61404
            Ni 158 -- Ni 181                -0.01         0.00          2.61469
            Ni 178 -- Ni 184                 0.03         0.00          2.61481
             Al 3  -- Ni 180                 0.16        -0.00          2.61481
             Al 59 -- Ni 7                   0.18         0.00          2.61489
             Al 34 -- Ni 122                 0.16        -0.00          2.61506
             Al 40 -- Ni 143                 0.18         0.00          2.61538
            Ni 172 -- Ni 177                -0.02        -0.00          2.61568
             Al 38 -- Ni 178                 0.17         0.00          2.61579
            Ni 115 -- Ni 117                 0.10        -0.00          2.61603
            Ni 53  -- Ni 78                  0.00        -0.00          2.61643
             Al 52 -- Ni 31                  0.18         0.00          2.61653
            Ni 42  -- Ni 47                 -0.01        -0.00          2.61659
            Ni 168 -- Ni 177                 0.03         0.00          2.61676
            Ni 147 -- Ni 170                -0.03         0.00          2.61696
             Al 36 -- Ni 122                 0.18        -0.00          2.61702
            Ni 152 -- Ni 160                 0.02         0.00          2.61716
             Al 11 -- Ni 31                  0.17        -0.00          2.61784
            Ni 143 -- Ni 167                 0.01        -0.00          2.61812
             Al 35 -- Ni 122                 0.18         0.00          2.61890
            Ni 110 -- Ni 118                 0.04        -0.00          2.61894
            Ni 7   -- Ni 107                 0.01        -0.00          2.61918
             Al 5  -- Ni 115                 0.16        -0.00          2.61931
             Al 11 -- Ni 107                 0.18         0.00          2.61995
            Ni 178 -- Ni 179                 0.06         0.00          2.62054
             Al 47 -- Ni 150                 0.19        -0.00          2.62120
            Ni 65  -- Ni 148                 0.04        -0.00          2.62135
            Ni 100 -- Ni 103                 0.05        -0.00          2.62191
            Ni 140 -- Ni 141                 0.07        -0.00          2.62216
             Al 21 -- Ni 31                  0.19        -0.00          2.62257
            Ni 124 -- Ni 125                 0.04         0.00          2.62298
             Al 58 -- Ni 119                 0.16        -0.00          2.62312
             Al 36 -- Ni 184                 0.17        -0.00          2.62389
            Ni 102 -- Ni 109                -0.02        -0.00          2.62517
             Al 50 -- Ni 117                 0.15        -0.00          2.62544
            Ni 170 -- Ni 175                -0.03         0.00          2.62685
             Al 46 -- Ni 147                 0.13        -0.00          2.62704
            Ni 136 -- Ni 141                 0.01         0.00          2.62749
             Al 63 -- Ni 97                  0.16         0.00          2.62763
             Al 5  -- Ni 7                   0.18         0.00          2.62764
            Ni 156 -- Ni 157                 0.12        -0.00          2.63003
            Ni 155 -- Ni 188                 0.03        -0.00          2.63328
            Ni 126 -- Ni 127                 0.01         0.00          2.63468
             Al 39 -- Ni 178                 0.18        -0.00          2.63613
             Al 23 -- Ni 166                 0.14         0.00          2.63640
            Ni 127 -- Ni 135                 0.09         0.00          2.63651
             Al 43 -- Ni 155                 0.18        -0.00          2.63695
            Ni 150 -- Ni 153                -0.02         0.00          2.63705
            Ni 129 -- Ni 130                 0.07        -0.00          2.63747
            Ni 154 -- Ni 155                 0.06         0.00          2.63790
             Al 38 -- Ni 182                 0.16        -0.00          2.63790
            Ni 102 -- Ni 108                 0.07        -0.00          2.63888
            Ni 108 -- Ni 111                 0.02        -0.00          2.63911
            Ni 162 -- Ni 164                 0.01         0.00          2.64108
            Ni 156 -- Ni 162                 0.13        -0.00          2.64207
             Al 3  -- Ni 7                   0.17         0.00          2.64375
             Al 13 -- Ni 139                 0.16         0.00          2.64415
             Al 48 -- Al 49                  0.26         0.00          2.64423
             Al 37 -- Ni 190                 0.15        -0.00          2.64451
             Al 52 -- Ni 37                  0.15         0.00          2.64496
             Al 23 -- Ni 159                 0.13         0.00          2.64504
            Ni 114 -- Ni 138                 0.01         0.00          2.64588
             Al 48 -- Al 50                  0.25        -0.00          2.64632
             Al 50 -- Al 58                  0.24        -0.00          2.64856
             Al 35 -- Ni 189                 0.15        -0.00          2.65073
            Ni 31  -- Ni 32                  0.05         0.00          2.65244
             Al 35 -- Ni 190                 0.13        -0.00          2.65282
             Al 37 -- Ni 122                 0.16         0.00          2.65426
             Al 33 -- Ni 122                 0.15        -0.00          2.65652
             Al 50 -- Ni 119                 0.13        -0.00          2.66197
            Ni 114 -- Ni 133                -0.02         0.00          2.66239
             Al 42 -- Ni 153                 0.17        -0.00          2.66259
            Ni 7   -- Ni 8                   0.05        -0.00          2.66508
            Ni 31  -- Ni 57                  0.04         0.00          2.66565
             Al 23 -- Al 49                  0.24         0.00          2.66828
             Al 38 -- Al 45                  0.23         0.00          2.66867
             Al 42 -- Al 43                  0.24         0.00          2.67022
            Ni 7   -- Ni 9                   0.05        -0.00          2.67479
            Ni 161 -- Ni 170                 0.03        -0.00          2.67728
            Ni 148 -- Ni 150                 0.07         0.00          2.67777
            Ni 168 -- Ni 169                 0.02        -0.00          2.69019
             Al 55 -- Ni 7                   0.12         0.00          2.69200
             Al 19 -- Ni 31                  0.15        -0.00          2.69274
            Ni 130 -- Ni 149                -0.04         0.00          2.69591
             Al 43 -- Ni 160                 0.13        -0.00          2.70464
             Al 45 -- Al 62                  0.19        -0.00          2.71025
             Al 46 -- Al 56                  0.21        -0.00          2.71644
             Al 56 -- Ni 124                 0.13         0.00          2.71771
             Al 42 -- Al 45                  0.21         0.00          2.71831
            Ni 149 -- Ni 150                -0.01        -0.00          2.71990
             Al 5  -- Al 59                  0.20        -0.00          2.72098
             Al 36 -- Al 37                  0.22         0.00          2.72182
            Ni 164 -- Ni 170                 0.03         0.00          2.72412
             Al 11 -- Al 55                  0.23        -0.00          2.72648
             Al 57 -- Al 63                  0.28        -0.00          2.72712
             Al 44 -- Al 45                  0.20        -0.00          2.72797
             Al 55 -- Ni 31                  0.11        -0.00          2.73252
             Al 34 -- Al 35                  0.19        -0.00          2.73628
             Al 33 -- Al 58                  0.20        -0.00          2.73721
             Al 46 -- Al 47                  0.20        -0.00          2.73869
             Al 33 -- Al 35                  0.20        -0.00          2.74280
             Al 56 -- Al 57                  0.28        -0.00          2.74434
             Al 34 -- Al 37                  0.19        -0.00          2.74470
             Al 21 -- Al 52                  0.19         0.00          2.74983
             Al 61 -- Al 63                  0.17        -0.00          2.76103
             Al 15 -- Al 49                  0.20         0.00          2.76987
             Al 47 -- Al 62                  0.17        -0.00          2.77128
             Al 44 -- Al 46                  0.17         0.00          2.77403
             Al 40 -- Al 51                  0.20         0.00          2.77753
             Al 53 -- Al 54                  0.18        -0.00          2.77983
             Al 41 -- Al 43                  0.16         0.00          2.78550
             Al 42 -- Ni 150                 0.11         0.00          2.78565
             Al 41 -- Al 53                  0.17        -0.00          2.80033
             Al 13 -- Al 59                  0.20        -0.00          2.80654
             Al 13 -- Al 52                  0.20        -0.00          2.80849
             Al 43 -- Al 54                  0.16         0.00          2.80921
             Al 55 -- Al 59                  0.15        -0.00          2.83125
             Al 52 -- Al 55                  0.15         0.00          2.84637
             Al 41 -- Al 54                  0.13        -0.00          2.86171
             Al 44 -- Al 62                  0.11        -0.00          2.90098
================================================================================
 

Writing analysis data to castep.castep_bin

Writing model to castep.check
 
 A BibTeX formatted list of references used in this run has been written to 
 castep.bib
 
Initialisation time =     13.68 s
Calculation time    =  18640.78 s
Finalisation time   =     11.33 s
Total time          =  18665.78 s
Peak Memory Use     = 2699560 kB
  
Overall parallel efficiency rating: Good (70%)                                  
  
Data was distributed by:-
G-vector (48-way); efficiency rating: Good (71%)                                
