 +-------------------------------------------------+
 |                                                 |
 |      CCC   AA    SSS  TTTTT  EEEEE  PPPP        |
 |     C     A  A  S       T    E      P   P       |
 |     C     AAAA   SS     T    EEE    PPPP        |
 |     C     A  A     S    T    E      P           |
 |      CCC  A  A  SSS     T    EEEEE  P           |
 |                                                 |
 +-------------------------------------------------+
 |                                                 |
 | Welcome to Academic Release CASTEP version 20.11|          
 | Ab Initio Total Energy Program                  |
 |                                                 |
 | Authors:                                        |
 | M. Segall, M. Probert, C. Pickard, P. Hasnip,   |
 | S. Clark, K. Refson, J. R. Yates, M. Payne      |
 |                                                 |
 | Contributors:                                   |
 | P. Lindan, P. Haynes, J. White, V. Milman,      |
 | N. Govind, M. Gibson, P. Tulip, V. Cocula,      |
 | B. Montanari, D. Quigley, M. Glover,            |
 | L. Bernasconi, A. Perlov, M. Plummer,           |
 | E. McNellis, J. Meyer, J. Gale, D. Jochym       |
 | J. Aarons, B. Walker, R. Gillen, D. Jones       |
 | T. Green, I. J. Bush, C. J. Armstrong,          |
 | E. J. Higgins, E. L. Brown, M. S. McFly,        |
 | J. Wilkins, B-C. Shih, P. J. P. Byrne,          |
 | R. J. Maurer, J. C. Womack, J. Dziedzic,        |
 | J. R. Kermode, A. Bartok-Partay                 |
 |                                                 |
 | Copyright (c) 2000 - 2020                       |
 |                                                 |
 |     Distributed under license from Cambridge    |
 |     Enterprise for academic use only.           |
 |                                                 |
 | Please cite                                     |
 |                                                 |
 |     "First principles methods using CASTEP"     |
 |                                                 |
 |         Zeitschrift fuer Kristallographie       |
 |           220(5-6) pp. 567-570 (2005)           |
 |                                                 |
 | S. J. Clark, M. D. Segall, C. J. Pickard,       |
 | P. J. Hasnip, M. J. Probert, K. Refson,         |
 | M. C. Payne                                     |
 |                                                 |
 |       in all publications arising from          |
 |              your use of CASTEP                 |
 |                                                 |
 +-------------------------------------------------+
 |                                                 |
 |              http://www.castep.org              |
 |                                                 |
 +-------------------------------------------------+
 
 
 
 Compiled for linux_x86_64_ifort on Wed, 25 Aug 2021 18:50:38 +0100
 from code version e772bf432+  HEAD  Sat Apr 3 17:41:32 2021 +0100
 Compiler: Intel Fortran 19.0.5.281; Optimisation: fast
 MATHLIBS: Intel MKL(2019.0.5) (LAPACK version 3.7.0)
 FFT Lib : mkl
 Fundamental constants values: CODATA 2014
 
 Run started: Thu, 09 Mar 2023 18:02:47 +0000
 
 Atomic calculation performed for Al: 1s2 2s2 2p6 3s2 3p1
 
 Converged in 52 iterations to an ae energy of -6606.982 eV
 
   ============================================================                
   | Pseudopotential Report - Date of generation  9-03-2023   |                
   ------------------------------------------------------------                
   | Element: Al Ionic charge:  3.00 Level of theory: RPBE    |                
   | Atomic Solver: Koelling-Harmon                           |                
   |                                                          |                
   |               Reference Electronic Structure             |                
   |         Orbital         Occupation         Energy        |                
   |            3s              2.000           -0.284        |                
   |            3p              1.000           -0.100        |                
   |                                                          |                
   |                 Pseudopotential Definition               |                
   |        Beta     l      e      Rc     scheme   norm       |                
   |          1      0   -0.284   2.192     qc      0         |                
   |          2      0    0.250   2.192     qc      0         |                
   |          3      1   -0.100   2.192     qc      0         |                
   |          4      1    0.250   2.192     qc      0         |                
   |          5      2    0.000   2.000     qc      0         |                
   |          6      2    0.250   2.000     qc      0         |                
   |         loc     3    0.000   2.192     pn      0         |                
   |                                                          |                
   | Augmentation charge Rinner = 1.398                       |                
   | Partial core correction Rc = 1.398                       |                
   ------------------------------------------------------------                
   | "3|2.2|2.2|1.4|4|5|5|30:31:32U2U2"                       |                
   ------------------------------------------------------------                
   |      Author: Chris J. Pickard, Cambridge University      |                
   ============================================================                
 
 Atomic calculation performed for Ni: 1s2 2s2 2p6 3s2 3p6 3d8 4s2
 
 Converged in 109 iterations to an ae energy of -41381.414 eV
 
   ============================================================                
   | Pseudopotential Report - Date of generation  9-03-2023   |                
   ------------------------------------------------------------                
   | Element: Ni Ionic charge: 10.00 Level of theory: RPBE    |                
   | Atomic Solver: Koelling-Harmon                           |                
   |                                                          |                
   |               Reference Electronic Structure             |                
   |         Orbital         Occupation         Energy        |                
   |            3d              8.000           -0.324        |                
   |            4s              2.000           -0.204        |                
   |                                                          |                
   |                 Pseudopotential Definition               |                
   |        Beta     l      e      Rc     scheme   norm       |                
   |          1      0   -0.204   2.401     qc      0         |                
   |          2      0    0.250   2.401     qc      0         |                
   |          3      1    0.000   2.401     qc      0         |                
   |          4      1    0.250   2.401     qc      0         |                
   |          5      2   -0.324   1.999     qc      0         |                
   |          6      2    0.250   1.999     qc      0         |                
   |         loc     3    0.000   2.401     pn      0         |                
   |                                                          |                
   | Augmentation charge Rinner = 1.001                       |                
   | Partial core correction Rc = 1.001                       |                
   ------------------------------------------------------------                
   | "3|2.4|2.4|1.0|8|9|10|40:41:32U2U2(qc=5.5)"              |                
   ------------------------------------------------------------                
   |      Author: Chris J. Pickard, Cambridge University      |                
   ============================================================                
 
 Pseudo atomic calculation performed for Al 3s2 3p1
 
 Converged in 13 iterations to a total energy of -107.6592 eV
 
 Pseudo atomic calculation performed for Ni 3d8 4s2
 
 Converged in 41 iterations to a total energy of -1369.7891 eV
 Calculation parallelised over 48 processes.
 Data is distributed by G-vector(48-way)

 ************************************ Title ************************************
 

 ***************************** General Parameters ******************************
  
 output verbosity                               : normal  (1)
 write checkpoint data to                       : castep.check
 type of calculation                            : geometry optimization
 stress calculation                             : off
 density difference calculation                 : off
 electron localisation func (ELF) calculation   : off
 Hirshfeld analysis                             : off
 molecular orbital projected DOS                : off
 deltaSCF calculation                           : off
 unlimited duration calculation
 timing information                             : on
 memory usage estimate                          : on
 write extra output files                       : on
 write final potential to formatted file        : off
 write final density to formatted file          : off
 write BibTeX reference list                    : on
 write OTFG pseudopotential files               : on
 write electrostatic potential file             : on
 write bands file                               : on
 checkpoint writing                             : both castep_bin and check files
  
 output         length unit                     : A
 output           mass unit                     : amu
 output           time unit                     : ps
 output         charge unit                     : e
 output           spin unit                     : hbar/2
 output         energy unit                     : eV
 output          force unit                     : eV/A
 output       velocity unit                     : A/ps
 output       pressure unit                     : GPa
 output     inv_length unit                     : 1/A
 output      frequency unit                     : cm-1
 output force constant unit                     : eV/A**2
 output         volume unit                     : A**3
 output   IR intensity unit                     : (D/A)**2/amu
 output         dipole unit                     : D
 output         efield unit                     : eV/A/e
 output        entropy unit                     : J/mol/K
 output    efield chi2 unit                     : pm/V
  
 wavefunctions paging                           : none
 random number generator seed                   : randomised (180247418)
 data distribution                              : optimal for this architecture
 optimization strategy                          : maximize speed(+++)

 *********************** Exchange-Correlation Parameters ***********************
  
 using functional                               : revised Perdew Burke Ernzerhof
 relativistic treatment                         : Koelling-Harmon
 DFT+D: Semi-empirical dispersion correction    : off

 ************************* Pseudopotential Parameters **************************
  
 pseudopotential representation                 : reciprocal space
 <beta|phi> representation                      : reciprocal space
 spin-orbit coupling                            : off

 **************************** Basis Set Parameters *****************************
  
 plane wave basis set cut-off                   :   900.0000   eV
 size of standard grid                          :     1.7500
 size of   fine   gmax                          :    26.8966   1/A
 finite basis set correction                    : none

 **************************** Electronic Parameters ****************************
  
 number of  electrons                           :  2046.    
 net charge of system                           :  0.000    
 treating system as non-spin-polarized
 number of bands                                :       1135

 ********************* Electronic Minimization Parameters **********************
  
 Method: Treating system as metallic with density mixing treatment of electrons,
         and number of  SD  steps               :          1
         and number of  CG  steps               :          4
  
 total energy / atom convergence tol.           : 0.1000E-05   eV
 eigen-energy convergence tolerance             : 0.2247E-06   eV
 max force / atom convergence tol.              : ignored
 convergence tolerance window                   :          3   cycles
 max. number of SCF cycles                      :        200
 number of fixed-spin iterations                :         10
 smearing scheme                                : Gaussian
 smearing width                                 : 0.2000       eV
 Fermi energy convergence tolerance             : 0.2721E-13   eV
 periodic dipole correction                     : NONE
 periodically dump wavefunctions to             : castep.wvfn
 dump wavefunctions every                       :          1   SCF cycles

 ************************** Density Mixing Parameters **************************
  
 density-mixing scheme                          : Pulay
 max. length of mixing history                  :         20
 charge density mixing amplitude                : 0.8000    
 cut-off energy for mixing                      :  900.0       eV

 *********************** Population Analysis Parameters ************************
  
 Population analysis with cutoff                :  3.000       A
 Population analysis output                     : summary and pdos components

 ********************** Geometry Optimization Parameters ***********************
  
 optimization method                            : LBFGS
 max. no. of LBFGS updates                      : unbounded
 variable cell method                           : fixed basis quality
 max. number of steps                           :         30
 estimated bulk modulus                         :  500.0       GPa
 estimated <frequency>                          :  1668.       cm-1
 geom line minimiser                            : on
 with line minimiser tolerance                  :     0.4000
 total energy convergence tolerance             : 0.2000E-04   eV/atom
        max ionic |force| tolerance             : 0.5000E-01   eV/A
 max ionic |displacement| tolerance             : 0.1000E-02   A
   max |stress component| tolerance             : 0.1000       GPa
 convergence tolerance window                   :          2   steps
 backup results every                           :          5   steps
 write geom trajectory file                     : on

 *******************************************************************************
  
 
                           -------------------------------
                                      Unit Cell
                           -------------------------------
        Real Lattice(A)                      Reciprocal Lattice(1/A)
    14.4648280     0.0000000     0.0000000        0.434376773   0.000000000   0.000000000
     0.0000000    14.4648280     0.0000000        0.000000000   0.434376773   0.000000000
     0.0000000     0.0000000    14.4648280        0.000000000   0.000000000   0.434376773
 
                       Lattice parameters(A)       Cell Angles
                    a =     14.464828          alpha =   90.000000
                    b =     14.464828          beta  =   90.000000
                    c =     14.464828          gamma =   90.000000
 
                       Current cell volume =          3026.494030       A**3
                                   density =             4.190844   AMU/A**3
                                           =             6.959059     g/cm^3
 
                           -------------------------------
                                     Cell Contents
                           -------------------------------
                         Total number of ions in cell =  255
                      Total number of species in cell =    2
                        Max number of any one species =  183
 
            xxxxxxxxxxxxxxxxxxxxxxxxxxxxxxxxxxxxxxxxxxxxxxxxxxxxxxxxxxxx
            x  Element    Atom        Fractional coordinates of atoms  x
            x            Number           u          v          w      x
            x----------------------------------------------------------x
            x  Al           1         0.942836   0.188101   0.562303   x 
            x  Al           2         0.941802   0.439918   0.562271   x 
            x  Al           3         0.946512   0.689358   0.556370   x 
            x  Al           4         0.943293   0.937362   0.561188   x 
            x  Al           5         0.941401   0.186288   0.810683   x 
            x  Al           6         0.941015   0.440698   0.810461   x 
            x  Al           7         0.948173   0.690776   0.812138   x 
            x  Al           8         0.944922   0.936430   0.807865   x 
            x  Al           9         0.943555   0.187709   0.060046   x 
            x  Al          10         0.941894   0.439593   0.058580   x 
            x  Al          11         0.945394   0.688263   0.064609   x 
            x  Al          12         0.948020   0.937586   0.066929   x 
            x  Al          13         0.944602   0.188783   0.311121   x 
            x  Al          14         0.942942   0.438719   0.312208   x 
            x  Al          15         0.943137   0.688032   0.310842   x 
            x  Al          16         0.943935   0.938335   0.309906   x 
            x  Al          17         0.700778   0.064518   0.431732   x 
            x  Al          18         0.427831   0.937381   0.307280   x 
            x  Al          19         0.563286   0.070994   0.305769   x 
            x  Al          20         0.174851   0.055424   0.679788   x 
            x  Al          21         0.193397   0.937659   0.309235   x 
            x  Al          22         0.174068   0.694612   0.310588   x 
            x  Al          23         0.314380   0.059096   0.553600   x 
            x  Al          24         0.052776   0.944896   0.433174   x 
            x  Al          25         0.694245   0.813905   0.437005   x 
            x  Al          26         0.564435   0.809663   0.303789   x 
            x  Al          27         0.310760   0.576638   0.564325   x 
            x  Al          28         0.176521   0.560535   0.437059   x 
            x  Al          29         0.698784   0.309758   0.434620   x 
            x  Al          30         0.444610   0.564012   0.431658   x 
            x  Al          31         0.310911   0.316614   0.324387   x 
            x  Al          32         0.569305   0.068164   0.070958   x 
            x  Al          33         0.060955   0.936760   0.178150   x 
            x  Al          34         0.437284   0.689347   0.063457   x 
            x  Al          35         0.308500   0.687569   0.187313   x 
            x  Al          36         0.695798   0.558311   0.193416   x 
            x  Al          37         0.564351   0.555964   0.067580   x 
            x  Al          38         0.309006   0.444847   0.182359   x 
            x  Al          39         0.071848   0.565772   0.058526   x 
            x  Al          40         0.699476   0.314425   0.187287   x 
            x  Al          41         0.689066   0.566033   0.430570   x 
            x  Al          42         0.556013   0.440115   0.927766   x 
            x  Al          43         0.553319   0.309376   0.064222   x 
            x  Al          44         0.309038   0.185671   0.182700   x 
            x  Al          45         0.064979   0.315185   0.071796   x 
            x  Al          46         0.690406   0.940116   0.809944   x 
            x  Al          47         0.811432   0.937437   0.943856   x 
            x  Al          48         0.559751   0.934635   0.681741   x 
            x  Al          49         0.440316   0.062438   0.938000   x 
            x  Al          50         0.313403   0.055104   0.805700   x 
            x  Al          51         0.803802   0.689262   0.936374   x 
            x  Al          52         0.442943   0.826638   0.939146   x 
            x  Al          53         0.572486   0.689277   0.929879   x 
            x  Al          54         0.313950   0.818096   0.810226   x 
            x  Al          55         0.695234   0.443003   0.799538   x 
            x  Al          56         0.191415   0.433924   0.804322   x 
            x  Al          57         0.320227   0.573494   0.811066   x 
            x  Al          58         0.058546   0.437074   0.929416   x 
            x  Al          59         0.696861   0.305971   0.935681   x 
            x  Al          60         0.555678   0.301976   0.801081   x 
            x  Al          61         0.189011   0.195375   0.806585   x 
            x  Al          62         0.061285   0.189437   0.936902   x 
            x  Al          63         0.559803   0.066592   0.553307   x 
            x  Al          64         0.806726   0.692747   0.685661   x 
            x  Al          65         0.563801   0.692763   0.684147   x 
            x  Al          66         0.315454   0.812622   0.552970   x 
            x  Al          67         0.180185   0.815667   0.688201   x 
            x  Al          68         0.051827   0.809610   0.560536   x 
            x  Al          69         0.556830   0.306313   0.563298   x 
            x  Al          70         0.553844   0.314135   0.312672   x 
            x  Al          71         0.694412   0.441069   0.570799   x 
            x  Al          72         0.325885   0.431792   0.672062   x 
            x  Ni           1         0.940162   0.312550   0.686802   x 
            x  Ni           2         0.939883   0.569741   0.685015   x 
            x  Ni           3         0.940072   0.810491   0.684480   x 
            x  Ni           4         0.940743   0.062069   0.685620   x 
            x  Ni           5         0.818001   0.313426   0.059355   x 
            x  Ni           6         0.937883   0.567207   0.936849   x 
            x  Ni           7         0.938505   0.813129   0.938493   x 
            x  Ni           8         0.939871   0.059287   0.936907   x 
            x  Ni           9         0.940376   0.314380   0.184869   x 
            x  Ni          10         0.939626   0.562687   0.186230   x 
            x  Ni          11         0.941640   0.812285   0.187841   x 
            x  Ni          12         0.942382   0.064022   0.186552   x 
            x  Ni          13         0.939621   0.314617   0.437810   x 
            x  Ni          14         0.940427   0.563369   0.435591   x 
            x  Ni          15         0.940856   0.813931   0.434156   x 
            x  Ni          16         0.940400   0.062485   0.435934   x 
            x  Ni          17         0.061423   0.188395   0.685782   x 
            x  Ni          18         0.061804   0.311790   0.561642   x 
            x  Ni          19         0.189671   0.312676   0.681037   x 
            x  Ni          20         0.308158   0.179655   0.682330   x 
            x  Ni          21         0.312944   0.308748   0.556533   x 
            x  Ni          22         0.185107   0.184337   0.560208   x 
            x  Ni          23         0.435744   0.305861   0.680933   x 
            x  Ni          24         0.562923   0.181701   0.682212   x 
            x  Ni          25         0.434959   0.183573   0.556631   x 
            x  Ni          26         0.687464   0.311213   0.684942   x 
            x  Ni          27         0.816039   0.185274   0.686361   x 
            x  Ni          28         0.687006   0.566991   0.683147   x 
            x  Ni          29         0.691598   0.186883   0.559521   x 
            x  Ni          30         0.062522   0.437686   0.687429   x 
            x  Ni          31         0.062629   0.564795   0.565674   x 
            x  Ni          32         0.192060   0.564183   0.688313   x 
            x  Ni          33         0.314271   0.445981   0.446326   x 
            x  Ni          34         0.187807   0.440247   0.564266   x 
            x  Ni          35         0.437205   0.567854   0.681393   x 
            x  Ni          36         0.688319   0.690407   0.807944   x 
            x  Ni          37         0.819624   0.441540   0.686104   x 
            x  Ni          38         0.815929   0.567172   0.560456   x 
            x  Ni          39         0.562495   0.563327   0.558791   x 
            x  Ni          40         0.060583   0.689060   0.688592   x 
            x  Ni          41         0.312966   0.697540   0.686054   x 
            x  Ni          42         0.183697   0.692943   0.560891   x 
            x  Ni          43         0.438406   0.815239   0.682284   x 
            x  Ni          44         0.688919   0.688736   0.558402   x 
            x  Ni          45         0.563328   0.815479   0.554994   x 
            x  Ni          46         0.687087   0.817021   0.682280   x 
            x  Ni          47         0.816384   0.568973   0.810157   x 
            x  Ni          48         0.816614   0.813422   0.559975   x 
            x  Ni          49         0.055683   0.936235   0.684529   x 
            x  Ni          50         0.057024   0.062897   0.558685   x 
            x  Ni          51         0.181714   0.933986   0.557108   x 
            x  Ni          52         0.309964   0.935171   0.679275   x 
            x  Ni          53         0.180589   0.814839   0.435919   x 
            x  Ni          54         0.310610   0.936744   0.433621   x 
            x  Ni          55         0.437049   0.058718   0.681177   x 
            x  Ni          56         0.688839   0.941316   0.556861   x 
            x  Ni          57         0.439065   0.937725   0.553427   x 
            x  Ni          58         0.687654   0.059677   0.682749   x 
            x  Ni          59         0.815379   0.936325   0.685555   x 
            x  Ni          60         0.817249   0.062279   0.561259   x 
            x  Ni          61         0.565709   0.939949   0.426710   x 
            x  Ni          62         0.062030   0.312963   0.809512   x 
            x  Ni          63         0.186085   0.314153   0.934521   x 
            x  Ni          64         0.311234   0.186503   0.933185   x 
            x  Ni          65         0.315048   0.311884   0.806602   x 
            x  Ni          66         0.438383   0.310660   0.932522   x 
            x  Ni          67         0.564002   0.187350   0.936405   x 
            x  Ni          68         0.433828   0.180929   0.808996   x 
            x  Ni          69         0.818341   0.184859   0.935404   x 
            x  Ni          70         0.814862   0.312367   0.808881   x 
            x  Ni          71         0.691109   0.185589   0.808969   x 
            x  Ni          72         0.063782   0.563211   0.809533   x 
            x  Ni          73         0.189513   0.563097   0.929506   x 
            x  Ni          74         0.314016   0.439781   0.931993   x 
            x  Ni          75         0.441774   0.567991   0.937124   x 
            x  Ni          76         0.435039   0.438390   0.806002   x 
            x  Ni          77         0.560974   0.563908   0.806278   x 
            x  Ni          78         0.557765   0.436617   0.682001   x 
            x  Ni          79         0.685137   0.558846   0.934309   x 
            x  Ni          80         0.938602   0.313592   0.934220   x 
            x  Ni          81         0.813757   0.439719   0.932213   x 
            x  Ni          82         0.062315   0.688906   0.935191   x 
            x  Ni          83         0.060590   0.814035   0.812353   x 
            x  Ni          84         0.188033   0.816295   0.933462   x 
            x  Ni          85         0.316783   0.693713   0.935547   x 
            x  Ni          86         0.188703   0.691545   0.811313   x 
            x  Ni          87         0.439217   0.940074   0.810248   x 
            x  Ni          88         0.441975   0.695784   0.812488   x 
            x  Ni          89         0.687530   0.816664   0.938340   x 
            x  Ni          90         0.815507   0.814723   0.812642   x 
            x  Ni          91         0.563912   0.818367   0.810492   x 
            x  Ni          92         0.060126   0.940941   0.936144   x 
            x  Ni          93         0.061152   0.065306   0.811976   x 
            x  Ni          94         0.186839   0.065111   0.932146   x 
            x  Ni          95         0.312713   0.940610   0.936807   x 
            x  Ni          96         0.185050   0.939101   0.809551   x 
            x  Ni          97         0.567836   0.943661   0.939047   x 
            x  Ni          98         0.563392   0.062653   0.808839   x 
            x  Ni          99         0.689307   0.064935   0.938356   x 
            x  Ni         100         0.815543   0.059050   0.811586   x 
            x  Ni         101         0.063491   0.187371   0.185588   x 
            x  Ni         102         0.193646   0.315094   0.189142   x 
            x  Ni         103         0.187732   0.187960   0.310852   x 
            x  Ni         104         0.312782   0.314114   0.058716   x 
            x  Ni         105         0.186744   0.189523   0.059351   x 
            x  Ni         106         0.435553   0.186108   0.060821   x 
            x  Ni         107         0.820068   0.188659   0.185549   x 
            x  Ni         108         0.691810   0.191436   0.063293   x 
            x  Ni         109         0.063525   0.439991   0.186839   x 
            x  Ni         110         0.184278   0.566781   0.189406   x 
            x  Ni         111         0.310659   0.565816   0.058430   x 
            x  Ni         112         0.186905   0.439218   0.057731   x 
            x  Ni         113         0.435819   0.562561   0.186741   x 
            x  Ni         114         0.436002   0.439044   0.059139   x 
            x  Ni         115         0.563084   0.432215   0.187033   x 
            x  Ni         116         0.818074   0.438463   0.184889   x 
            x  Ni         117         0.813325   0.562698   0.060263   x 
            x  Ni         118         0.687247   0.432784   0.058651   x 
            x  Ni         119         0.056295   0.689481   0.181798   x 
            x  Ni         120         0.061290   0.813654   0.056144   x 
            x  Ni         121         0.185255   0.813913   0.183537   x 
            x  Ni         122         0.314102   0.814341   0.059594   x 
            x  Ni         123         0.188404   0.690954   0.059111   x 
            x  Ni         124         0.436639   0.812449   0.185711   x 
            x  Ni         125         0.564576   0.684039   0.184511   x 
            x  Ni         126         0.563716   0.813135   0.063599   x 
            x  Ni         127         0.690072   0.812285   0.186559   x 
            x  Ni         128         0.816533   0.687382   0.184908   x 
            x  Ni         129         0.815312   0.811873   0.062882   x 
            x  Ni         130         0.687861   0.684501   0.063129   x 
            x  Ni         131         0.059375   0.064618   0.058977   x 
            x  Ni         132         0.185383   0.061997   0.183781   x 
            x  Ni         133         0.310048   0.938843   0.183317   x 
            x  Ni         134         0.311870   0.064043   0.059195   x 
            x  Ni         135         0.186351   0.938623   0.058970   x 
            x  Ni         136         0.437120   0.065159   0.186732   x 
            x  Ni         137         0.563130   0.939645   0.190341   x 
            x  Ni         138         0.440673   0.942336   0.064456   x 
            x  Ni         139         0.691626   0.066670   0.189645   x 
            x  Ni         140         0.817828   0.937890   0.184791   x 
            x  Ni         141         0.816095   0.063331   0.063322   x 
            x  Ni         142         0.689646   0.940028   0.066130   x 
            x  Ni         143         0.061495   0.186681   0.433985   x 
            x  Ni         144         0.064287   0.312156   0.309582   x 
            x  Ni         145         0.184389   0.314768   0.439063   x 
            x  Ni         146         0.308723   0.186129   0.435509   x 
            x  Ni         147         0.427930   0.315359   0.188564   x 
            x  Ni         148         0.183779   0.060608   0.435008   x 
            x  Ni         149         0.437978   0.316985   0.440360   x 
            x  Ni         150         0.566106   0.189197   0.432989   x 
            x  Ni         151         0.562839   0.195775   0.188269   x 
            x  Ni         152         0.432580   0.190556   0.311237   x 
            x  Ni         153         0.691068   0.433399   0.313829   x 
            x  Ni         154         0.820728   0.187834   0.436307   x 
            x  Ni         155         0.820532   0.313816   0.311459   x 
            x  Ni         156         0.693262   0.192142   0.310429   x 
            x  Ni         157         0.058834   0.436845   0.438384   x 
            x  Ni         158         0.051888   0.563144   0.311710   x 
            x  Ni         159         0.307881   0.686114   0.432602   x 
            x  Ni         160         0.186600   0.439802   0.314561   x 
            x  Ni         161         0.439747   0.690269   0.555531   x 
            x  Ni         162         0.567184   0.434648   0.442886   x 
            x  Ni         163         0.565276   0.559754   0.308859   x 
            x  Ni         164         0.434045   0.440036   0.313530   x 
            x  Ni         165         0.815770   0.312702   0.563507   x 
            x  Ni         166         0.817398   0.562641   0.312257   x 
            x  Ni         167         0.814708   0.439881   0.439852   x 
            x  Ni         168         0.056031   0.689303   0.436055   x 
            x  Ni         169         0.059688   0.820931   0.309338   x 
            x  Ni         170         0.309145   0.810128   0.310684   x 
            x  Ni         171         0.308171   0.564751   0.313496   x 
            x  Ni         172         0.439931   0.812208   0.428820   x 
            x  Ni         173         0.566515   0.690159   0.431857   x 
            x  Ni         174         0.437110   0.687272   0.308240   x 
            x  Ni         175         0.816651   0.689191   0.435576   x 
            x  Ni         176         0.816550   0.813646   0.309772   x 
            x  Ni         177         0.692417   0.689204   0.309633   x 
            x  Ni         178         0.061047   0.061296   0.306583   x 
            x  Ni         179         0.311168   0.064660   0.310023   x 
            x  Ni         180         0.438950   0.062305   0.429304   x 
            x  Ni         181         0.692426   0.938131   0.309647   x 
            x  Ni         182         0.818171   0.937584   0.435287   x 
            x  Ni         183         0.818715   0.063282   0.308928   x 
            xxxxxxxxxxxxxxxxxxxxxxxxxxxxxxxxxxxxxxxxxxxxxxxxxxxxxxxxxxxx
 
 
                         No user defined ionic velocities
 
                           -------------------------------
                                   Details of Species
                           -------------------------------
 
                               Mass of species in AMU
                                    Al   26.9815400
                                    Ni   58.6934000
 
                          Electric Quadrupole Moment (Barn)
                                    Al    0.1466000 Isotope 27
                                    Ni    0.1620000 Isotope 61
 
                          Files used for pseudopotentials:
                                    Al 3|2.2|2.2|1.4|4|5|5|30:31:32U2U2
                                    Ni 3|2.4|2.4|1.0|8|9|10|40:41:32U2U2(qc=5.5)
 
                           -------------------------------
                              k-Points For BZ Sampling
                           -------------------------------
                       MP grid size for SCF calculation is  1  1  1
                            with an offset of   0.000  0.000  0.000
                       Number of kpoints used =             1
 
                           -------------------------------
                               Symmetry and Constraints
                           -------------------------------
 
                      Maximum deviation from symmetry =  0.00000         ANG
 
                      Number of symmetry operations   =           1
                      Number of ionic constraints     =           3
                      Point group of crystal =     1: C1, 1, 1
                      Space group of crystal =     1: P1, P 1
 
             Set iprint > 1 for details on symmetry rotations/translations
 
                         Centre of mass is constrained
             Set iprint > 1 for details of linear ionic constraints
 
                         Number of cell constraints= 6
                         Cell constraints are:  0 0 0 0 0 0
 
                         External pressure/stress (GPa)
                          0.00000   0.00000   0.00000
                                    0.00000   0.00000
                                              0.00000
  
+---------------- MEMORY AND SCRATCH DISK ESTIMATES PER PROCESS --------------+
|                                                     Memory          Disk    |
| Baseline code, static data and system overhead      622.0 MB         0.0 MB |
| BLAS internal memory storage                          0.0 MB         0.0 MB |
| Model and support data                              703.2 MB         0.0 MB |
| Electronic energy minimisation requirements         156.3 MB         0.0 MB |
| Force calculation requirements                        5.4 MB         0.0 MB |
|                                               ----------------------------- |
| Approx. total storage required per process         1481.4 MB         0.0 MB |
|                                                                             |
| Requirements will fluctuate during execution and may exceed these estimates |
+-----------------------------------------------------------------------------+
Calculating total energy with cut-off of  900.000 eV.
------------------------------------------------------------------------ <-- SCF
SCF loop      Energy           Fermi           Energy gain       Timer   <-- SCF
                               energy          per atom          (sec)   <-- SCF
------------------------------------------------------------------------ <-- SCF
Initial  -2.08610881E+005  0.00000000E+000                        16.06  <-- SCF
      1  -2.52478104E+005  7.21646510E+000   1.72028327E+002      58.00  <-- SCF
      2  -2.59289276E+005  3.77706730E+000   2.67104784E+001      97.68  <-- SCF
      3  -2.59993295E+005  3.71251122E+000   2.76085961E+000     137.51  <-- SCF
      4  -2.60040069E+005  3.88998067E+000   1.83425931E-001     172.83  <-- SCF
      5  -2.60348332E+005  6.96817528E+000   1.20887479E+000     219.08  <-- SCF
      6  -2.60138629E+005  5.77438131E+000  -8.22363722E-001     270.53  <-- SCF
      7  -2.60024218E+005  4.78925515E+000  -4.48668460E-001     320.38  <-- SCF
      8  -2.59997549E+005  4.62052069E+000  -1.04587263E-001     364.74  <-- SCF
      9  -2.60000299E+005  4.65603157E+000   1.07843041E-002     409.39  <-- SCF
     10  -2.60010706E+005  4.68811406E+000   4.08144210E-002     454.62  <-- SCF
     11  -2.59999325E+005  4.62891857E+000  -4.46322146E-002     502.01  <-- SCF
     12  -2.59994939E+005  4.59308772E+000  -1.71998549E-002     546.40  <-- SCF
     13  -2.59994387E+005  4.58708698E+000  -2.16535425E-003     591.69  <-- SCF
     14  -2.59994392E+005  4.58335920E+000   1.99201369E-005     636.44  <-- SCF
     15  -2.59993913E+005  4.57895142E+000  -1.87957934E-003     681.03  <-- SCF
     16  -2.59993911E+005  4.58042235E+000  -8.27431195E-006     726.67  <-- SCF
     17  -2.59993888E+005  4.58475785E+000  -9.05177293E-005     771.52  <-- SCF
     18  -2.59993860E+005  4.58545115E+000  -1.07641795E-004     816.24  <-- SCF
     19  -2.59993871E+005  4.58621689E+000   4.16980475E-005     861.03  <-- SCF
     20  -2.59993864E+005  4.58649730E+000  -2.77029324E-005     904.95  <-- SCF
     21  -2.59993856E+005  4.58645258E+000  -3.01026885E-005     947.73  <-- SCF
     22  -2.59993857E+005  4.58634627E+000   3.15804142E-006     987.88  <-- SCF
     23  -2.59993856E+005  4.58613876E+000  -3.57542083E-006    1020.76  <-- SCF
     24  -2.59993856E+005  4.58610675E+000  -1.48844263E-006    1051.11  <-- SCF
     25  -2.59993856E+005  4.58614241E+000   1.06692137E-007    1081.80  <-- SCF
     26  -2.59993856E+005  4.58619440E+000  -1.83422732E-007    1112.19  <-- SCF
------------------------------------------------------------------------ <-- SCF
 
Final energy, E             =  -259989.6642092     eV
Final free energy (E-TS)    =  -259993.8555821     eV
(energies not corrected for finite basis set)
 
NB est. 0K energy (E-0.5TS)      =  -259991.7598956     eV
 

Writing analysis data to castep.castep_bin

Writing model to castep.check
 
+---------------- MEMORY AND SCRATCH DISK ESTIMATES PER PROCESS --------------+
|                                                     Memory          Disk    |
| Model and support data                              713.2 MB         0.0 MB |
| Electronic energy minimisation requirements         156.3 MB         0.0 MB |
| Geometry minimisation requirements                  192.3 MB         0.0 MB |
|                                               ----------------------------- |
| Approx. total storage required per process         1061.8 MB         0.0 MB |
|                                                                             |
| Requirements will fluctuate during execution and may exceed these estimates |
+-----------------------------------------------------------------------------+
 
 
 ************************************** Forces **************************************
 *                                                                                  *
 *                           Cartesian components (eV/A)                            *
 * -------------------------------------------------------------------------------- *
 *                         x                    y                    z              *
 *                                                                                  *
 * Al              1     -0.43654              0.11617             -0.09968         *
 * Al              2     -0.20674             -0.08815              0.08642         *
 * Al              3     -2.23679             -1.95279              0.19520         *
 * Al              4     -2.79743              1.21742              1.03936         *
 * Al              5     -1.16091              0.03903             -0.91038         *
 * Al              6     -1.54581              0.02923             -1.33400         *
 * Al              7     -0.34678             -0.13564              0.11015         *
 * Al              8     -0.46045              0.10660              0.05424         *
 * Al              9     -2.15775             -0.61179              1.03186         *
 * Al             10     -2.35589              0.27324              0.96902         *
 * Al             11     -1.33535              0.59476             -0.28402         *
 * Al             12     -2.35300              0.02334             -1.76393         *
 * Al             13     -0.51884              0.03902             -0.03465         *
 * Al             14     -0.56659             -0.39881             -0.04379         *
 * Al             15     -0.80818              0.22563             -0.09925         *
 * Al             16     -2.79708              0.22085             -0.80600         *
 * Al             17      0.19199              0.03015              0.12099         *
 * Al             18     -0.06322              0.11133              0.06634         *
 * Al             19      0.01905             -0.07267             -0.11014         *
 * Al             20     -0.12635              0.01570             -0.15676         *
 * Al             21      0.33670              0.11500              0.06746         *
 * Al             22      0.17991             -0.03521              0.02358         *
 * Al             23      0.01681              0.04747             -0.12306         *
 * Al             24      2.81403             -0.05523              0.33740         *
 * Al             25      0.16886              0.04052              0.20881         *
 * Al             26      0.01445             -0.22042             -0.09421         *
 * Al             27     -0.01346              0.18683              0.00538         *
 * Al             28      0.07411             -0.10710             -0.03379         *
 * Al             29      0.26479             -0.24679             -0.03746         *
 * Al             30     -0.12146              0.00040             -0.03556         *
 * Al             31     -0.08710              0.06343              0.05171         *
 * Al             32      0.14113             -0.16166             -0.05404         *
 * Al             33      2.47686              0.09560              1.17623         *
 * Al             34     -0.09822             -0.05980              0.02789         *
 * Al             35     -0.02671              0.07423              0.07357         *
 * Al             36      0.13618              0.17239             -0.04381         *
 * Al             37      0.02563             -0.02323              0.03104         *
 * Al             38      0.01716              0.02448              0.00876         *
 * Al             39      0.91162              0.14113              0.55709         *
 * Al             40      0.06328             -0.10264             -0.10876         *
 * Al             41      0.10815              0.15881              0.06269         *
 * Al             42     -0.36445              0.29283              0.11561         *
 * Al             43     -0.21640             -0.10659              0.07207         *
 * Al             44      0.15401             -0.10467             -0.02141         *
 * Al             45      1.73185              0.01366              0.23554         *
 * Al             46     -0.26113             -0.06865             -0.03249         *
 * Al             47     -0.07215              0.13896              0.14459         *
 * Al             48     -0.29227              0.03968             -0.02302         *
 * Al             49     -0.04072              0.03499             -0.06775         *
 * Al             50      0.03006             -0.07337              0.12064         *
 * Al             51     -0.15159             -0.01999              0.03838         *
 * Al             52     -0.01183              0.13823             -0.07852         *
 * Al             53      0.16401             -0.07537             -0.18529         *
 * Al             54      0.13043             -0.01884              0.17666         *
 * Al             55      0.05379              0.37174             -0.24655         *
 * Al             56     -0.09046             -0.17188              0.11745         *
 * Al             57      0.14707              0.15720              0.12614         *
 * Al             58      2.01192             -0.00577              0.22833         *
 * Al             59      0.50638             -0.26773              0.04206         *
 * Al             60     -0.14249             -0.20874             -0.22401         *
 * Al             61      0.05527              0.21365              0.03398         *
 * Al             62      1.57783             -0.38478             -0.33245         *
 * Al             63     -0.01390              0.05349              0.09371         *
 * Al             64     -0.07482             -0.17710             -0.17082         *
 * Al             65     -0.13161              0.01885             -0.20677         *
 * Al             66      0.04237             -0.00290             -0.22756         *
 * Al             67      0.01906             -0.06550              0.02114         *
 * Al             68      2.99275              0.46066             -0.16776         *
 * Al             69     -0.15109              0.10096              0.19513         *
 * Al             70     -0.13168              0.15009              0.05888         *
 * Al             71     -0.15315              0.09631              0.15954         *
 * Al             72      0.15966             -0.35563             -0.13612         *
 * Ni              1     -0.19037              0.10277             -0.00972         *
 * Ni              2     -0.29001             -0.11867              0.24593         *
 * Ni              3     -0.70152             -0.20160              0.22028         *
 * Ni              4     -0.36833              0.15120              0.16471         *
 * Ni              5      0.14323              0.05425             -0.05630         *
 * Ni              6      0.24264             -0.33147              0.16137         *
 * Ni              7     -0.23076              0.02836             -0.14605         *
 * Ni              8     -0.46102              0.20851             -0.08461         *
 * Ni              9     -0.11341             -0.04020             -0.09073         *
 * Ni             10     -0.31665             -0.07725             -0.71536         *
 * Ni             11     -0.51505              0.46064             -0.38805         *
 * Ni             12     -0.38946             -0.31333             -0.26586         *
 * Ni             13     -0.11050             -0.20038             -0.04997         *
 * Ni             14     -0.42182             -0.08573              0.48017         *
 * Ni             15     -0.48980              0.60032              0.29533         *
 * Ni             16     -0.68927              0.06696             -0.33838         *
 * Ni             17      0.45597              0.05411             -0.05084         *
 * Ni             18      0.35140              0.15470              0.10385         *
 * Ni             19     -0.13248             -0.04535             -0.10039         *
 * Ni             20      0.02435              0.08095              0.17186         *
 * Ni             21     -0.30078             -0.00333              0.02610         *
 * Ni             22      0.02014              0.10167             -0.07515         *
 * Ni             23     -0.12437             -0.15952              0.13435         *
 * Ni             24      0.07130             -0.06755              0.11567         *
 * Ni             25     -0.05066              0.31507             -0.05599         *
 * Ni             26      0.21844             -0.12858              0.12906         *
 * Ni             27     -0.32913              0.16562             -0.08669         *
 * Ni             28      0.04023             -0.01379              0.21271         *
 * Ni             29      0.04998             -0.08614              0.08428         *
 * Ni             30      0.29372              0.15039             -0.27179         *
 * Ni             31      0.21010             -0.21634             -0.01489         *
 * Ni             32     -0.00360             -0.01849              0.18618         *
 * Ni             33     -0.04228              0.02282              0.06583         *
 * Ni             34      0.21063              0.01893             -0.13494         *
 * Ni             35     -0.06166             -0.32119              0.14510         *
 * Ni             36     -0.22029              0.03115              0.06004         *
 * Ni             37     -0.03129             -0.07483             -0.11665         *
 * Ni             38     -0.06949              0.00046              0.01691         *
 * Ni             39      0.24790              0.05420              0.12443         *
 * Ni             40      0.82595             -0.10504             -0.51465         *
 * Ni             41     -0.07392             -0.03334             -0.03751         *
 * Ni             42      0.09267              0.01239              0.18492         *
 * Ni             43      0.00282             -0.09653              0.05499         *
 * Ni             44     -0.18460              0.07427             -0.07775         *
 * Ni             45      0.05265             -0.14068             -0.06999         *
 * Ni             46      0.24207              0.18480              0.03809         *
 * Ni             47     -0.02363              0.12255             -0.05524         *
 * Ni             48      0.00495             -0.00207              0.14116         *
 * Ni             49      0.77850             -0.15462             -0.16231         *
 * Ni             50      0.53174              0.05077             -0.11029         *
 * Ni             51      0.14305             -0.08408              0.12815         *
 * Ni             52      0.15964              0.10985              0.15274         *
 * Ni             53     -0.00967             -0.02664             -0.28594         *
 * Ni             54      0.04651             -0.04262              0.16108         *
 * Ni             55      0.20301              0.21742             -0.01888         *
 * Ni             56      0.04090              0.07095              0.15256         *
 * Ni             57      0.24530             -0.10845             -0.05205         *
 * Ni             58      0.15856              0.05912              0.08777         *
 * Ni             59     -0.03114              0.05309             -0.25653         *
 * Ni             60     -0.05808             -0.05675              0.17838         *
 * Ni             61     -0.17689             -0.02632              0.07518         *
 * Ni             62      0.11252              0.01440             -0.17361         *
 * Ni             63      0.16835              0.06158              0.24041         *
 * Ni             64      0.10879             -0.00960              0.07866         *
 * Ni             65      0.09568              0.06346              0.09478         *
 * Ni             66     -0.07679              0.15674              0.01845         *
 * Ni             67      0.14859              0.10174             -0.16133         *
 * Ni             68     -0.01333              0.01555             -0.07791         *
 * Ni             69     -0.16064             -0.13096              0.02556         *
 * Ni             70     -0.03353             -0.07650             -0.16266         *
 * Ni             71     -0.19304             -0.13356              0.03717         *
 * Ni             72      0.23556             -0.25012              0.14014         *
 * Ni             73     -0.02486             -0.04456              0.15082         *
 * Ni             74     -0.01062             -0.09172              0.01900         *
 * Ni             75      0.13519              0.00248              0.26103         *
 * Ni             76      0.03040              0.05404             -0.06379         *
 * Ni             77      0.05830             -0.08359             -0.00424         *
 * Ni             78     -0.09734              0.16253             -0.08544         *
 * Ni             79      0.05022             -0.12469             -0.00197         *
 * Ni             80      0.25383             -0.03876              0.47004         *
 * Ni             81     -0.09188              0.07720              0.22761         *
 * Ni             82      0.67209              0.01687              0.07462         *
 * Ni             83      0.37445              0.15627              0.34193         *
 * Ni             84     -0.22623             -0.20441              0.27830         *
 * Ni             85     -0.27857              0.16625              0.09622         *
 * Ni             86     -0.04270             -0.03976             -0.04538         *
 * Ni             87     -0.00941             -0.05326             -0.04939         *
 * Ni             88     -0.10010              0.05511             -0.01172         *
 * Ni             89      0.12076              0.13343              0.04081         *
 * Ni             90     -0.21596             -0.01359             -0.03482         *
 * Ni             91      0.27928             -0.07563              0.02541         *
 * Ni             92      0.76067             -0.24850             -0.18940         *
 * Ni             93      0.36256              0.15159              0.12285         *
 * Ni             94     -0.00705              0.11069              0.21919         *
 * Ni             95     -0.21257             -0.05111              0.09974         *
 * Ni             96      0.02805              0.01656              0.11455         *
 * Ni             97     -0.11593              0.02453              0.17995         *
 * Ni             98      0.25943              0.06688             -0.08587         *
 * Ni             99      0.32009              0.14411             -0.21180         *
 * Ni            100     -0.07376             -0.03697              0.05969         *
 * Ni            101      0.38222              0.06706             -0.08402         *
 * Ni            102     -0.10711             -0.02225              0.07661         *
 * Ni            103     -0.06940              0.07470              0.02310         *
 * Ni            104     -0.14144             -0.04079             -0.27666         *
 * Ni            105      0.04562             -0.03893             -0.14895         *
 * Ni            106      0.04012              0.12589             -0.13736         *
 * Ni            107     -0.34275             -0.06206              0.13847         *
 * Ni            108     -0.00553              0.00625              0.07164         *
 * Ni            109      0.29006              0.10049             -0.16906         *
 * Ni            110     -0.07537             -0.08796              0.06241         *
 * Ni            111     -0.00792              0.07628             -0.11483         *
 * Ni            112     -0.02269             -0.04480             -0.23348         *
 * Ni            113      0.09036              0.13571              0.00915         *
 * Ni            114      0.16250             -0.07268             -0.15489         *
 * Ni            115     -0.07746              0.05785              0.13039         *
 * Ni            116     -0.07681             -0.05034              0.15324         *
 * Ni            117     -0.01971              0.01407             -0.17998         *
 * Ni            118     -0.10327              0.03085             -0.23120         *
 * Ni            119      1.02990              0.01776              0.27826         *
 * Ni            120      0.62752              0.04635              0.26642         *
 * Ni            121     -0.03862             -0.02446             -0.06338         *
 * Ni            122     -0.14156              0.11901              0.20768         *
 * Ni            123      0.14701              0.07118             -0.25871         *
 * Ni            124     -0.09235              0.19245             -0.10042         *
 * Ni            125      0.02658             -0.07486              0.05023         *
 * Ni            126     -0.08624             -0.11431             -0.29093         *
 * Ni            127      0.27190              0.04695             -0.29269         *
 * Ni            128     -0.22021              0.09152              0.20777         *
 * Ni            129     -0.14985             -0.05595              0.08503         *
 * Ni            130     -0.22972              0.14254              0.21741         *
 * Ni            131      0.89775              0.00138              0.02263         *
 * Ni            132     -0.08394             -0.02138             -0.03183         *
 * Ni            133      0.11474              0.00662             -0.30635         *
 * Ni            134     -0.32759             -0.28614              0.08057         *
 * Ni            135      0.17808              0.11995             -0.23795         *
 * Ni            136     -0.12992             -0.03071              0.01607         *
 * Ni            137      0.04298             -0.15149              0.05765         *
 * Ni            138     -0.09556              0.04209              0.18440         *
 * Ni            139      0.30026             -0.12882             -0.16281         *
 * Ni            140     -0.30414              0.05868              0.17638         *
 * Ni            141     -0.08816              0.00563             -0.03940         *
 * Ni            142     -0.13399             -0.14308              0.09339         *
 * Ni            143      0.45535              0.10481              0.24369         *
 * Ni            144      0.29697              0.17862              0.12685         *
 * Ni            145     -0.09625             -0.08015             -0.01529         *
 * Ni            146      0.23176             -0.06355             -0.00175         *
 * Ni            147     -0.10416             -0.04256             -0.03793         *
 * Ni            148     -0.02402              0.16301             -0.21015         *
 * Ni            149     -0.16431             -0.15836             -0.03656         *
 * Ni            150     -0.14910              0.01026              0.03655         *
 * Ni            151     -0.04155              0.01141              0.02905         *
 * Ni            152      0.11355              0.00301              0.15986         *
 * Ni            153     -0.01728             -0.11009             -0.11925         *
 * Ni            154     -0.18187              0.11701             -0.05007         *
 * Ni            155     -0.00359              0.06155              0.10721         *
 * Ni            156      0.05795             -0.08680             -0.09346         *
 * Ni            157      0.46901             -0.03417             -0.04146         *
 * Ni            158      1.47093              0.06447             -0.30010         *
 * Ni            159      0.03348              0.02149             -0.02770         *
 * Ni            160     -0.09665             -0.16779             -0.23279         *
 * Ni            161      0.13652             -0.02322              0.00863         *
 * Ni            162      0.30193             -0.23366             -0.09459         *
 * Ni            163     -0.12621              0.16415             -0.00060         *
 * Ni            164      0.16542             -0.02210             -0.02154         *
 * Ni            165     -0.01091              0.01239              0.08025         *
 * Ni            166      0.08930             -0.02171              0.11016         *
 * Ni            167     -0.23209             -0.06917             -0.19753         *
 * Ni            168      1.00921             -0.10192             -0.08175         *
 * Ni            169      0.48581              0.03855              0.03727         *
 * Ni            170      0.00138             -0.21118             -0.02804         *
 * Ni            171     -0.08979             -0.06473             -0.04412         *
 * Ni            172     -0.02225              0.03055              0.07476         *
 * Ni            173     -0.16408              0.04483              0.11437         *
 * Ni            174      0.11002             -0.22600              0.11637         *
 * Ni            175     -0.02129             -0.11601             -0.12874         *
 * Ni            176     -0.06363             -0.09755             -0.23963         *
 * Ni            177      0.07231              0.13897             -0.07935         *
 * Ni            178      0.72187             -0.27216              0.29284         *
 * Ni            179     -0.26056              0.11427              0.15201         *
 * Ni            180     -0.26176              0.13315             -0.07971         *
 * Ni            181      0.10204             -0.00276             -0.15393         *
 * Ni            182     -0.03501              0.02594             -0.14062         *
 * Ni            183      0.06164              0.06015             -0.18168         *
 *                                                                                  *
 ************************************************************************************
 LBFGS: finished iteration     0 with enthalpy= -2.59993856E+005 eV
  
 +-----------+-----------------+-----------------+------------+-----+ <-- LBFGS
 | Parameter |      value      |    tolerance    |    units   | OK? | <-- LBFGS
 +-----------+-----------------+-----------------+------------+-----+ <-- LBFGS
 |  dE/ion   |   0.000000E+000 |   2.000000E-005 |         eV | No  | <-- LBFGS
 |  |F|max   |   3.223047E+000 |   5.000000E-002 |       eV/A | No  | <-- LBFGS
 |  |dR|max  |   0.000000E+000 |   1.000000E-003 |          A | No  | <-- LBFGS
 +-----------+-----------------+-----------------+------------+-----+ <-- LBFGS
  

================================================================================
 Starting LBFGS iteration          1 ...
================================================================================
  
 +------------+-------------+-------------+-----------------+ <-- min LBFGS
 |    Step    |   lambda    |   F.delta'  |    enthalpy     | <-- min LBFGS
 +------------+-------------+-------------+-----------------+ <-- min LBFGS
 |  previous  |    0.000000 |    5.888148 |  -259993.855582 | <-- min LBFGS
 +------------+-------------+-------------+-----------------+ <-- min LBFGS
  

--------------------------------------------------------------------------------
 LBFGS: starting iteration         1 with trial guess (lambda=  1.000000)
--------------------------------------------------------------------------------
 
                           -------------------------------
                                     Cell Contents
                           -------------------------------
 
            xxxxxxxxxxxxxxxxxxxxxxxxxxxxxxxxxxxxxxxxxxxxxxxxxxxxxxxxxxxxxxxxx
            x  Element         Atom        Fractional coordinates of atoms  x
            x                 Number           u          v          w      x
            x---------------------------------------------------------------x
            x  Al                1         0.942776   0.188116   0.562290   x
            x  Al                2         0.941774   0.439906   0.562283   x
            x  Al                3         0.946208   0.689092   0.556397   x
            x  Al                4         0.942913   0.937528   0.561329   x
            x  Al                5         0.941243   0.186293   0.810560   x
            x  Al                6         0.940805   0.440702   0.810280   x
            x  Al                7         0.948126   0.690758   0.812153   x
            x  Al                8         0.944859   0.936444   0.807872   x
            x  Al                9         0.943262   0.187626   0.060186   x
            x  Al               10         0.941574   0.439630   0.058712   x
            x  Al               11         0.945212   0.688344   0.064571   x
            x  Al               12         0.947700   0.937590   0.066690   x
            x  Al               13         0.944531   0.188789   0.311116   x
            x  Al               14         0.942865   0.438665   0.312202   x
            x  Al               15         0.943027   0.688062   0.310828   x
            x  Al               16         0.943555   0.938365   0.309797   x
            x  Al               17         0.700804   0.064523   0.431749   x
            x  Al               18         0.427822   0.937396   0.307289   x
            x  Al               19         0.563288   0.070984   0.305754   x
            x  Al               20         0.174834   0.055426   0.679767   x
            x  Al               21         0.193443   0.937675   0.309244   x
            x  Al               22         0.174093   0.694607   0.310591   x
            x  Al               23         0.314382   0.059103   0.553583   x
            x  Al               24         0.053158   0.944888   0.433220   x
            x  Al               25         0.694268   0.813911   0.437034   x
            x  Al               26         0.564437   0.809633   0.303776   x
            x  Al               27         0.310758   0.576664   0.564326   x
            x  Al               28         0.176531   0.560521   0.437054   x
            x  Al               29         0.698820   0.309724   0.434615   x
            x  Al               30         0.444593   0.564012   0.431653   x
            x  Al               31         0.310899   0.316623   0.324394   x
            x  Al               32         0.569325   0.068142   0.070951   x
            x  Al               33         0.061291   0.936773   0.178309   x
            x  Al               34         0.437271   0.689339   0.063461   x
            x  Al               35         0.308497   0.687579   0.187323   x
            x  Al               36         0.695816   0.558334   0.193410   x
            x  Al               37         0.564354   0.555961   0.067585   x
            x  Al               38         0.309008   0.444851   0.182360   x
            x  Al               39         0.071972   0.565791   0.058602   x
            x  Al               40         0.699484   0.314411   0.187272   x
            x  Al               41         0.689081   0.566054   0.430579   x
            x  Al               42         0.555963   0.440155   0.927782   x
            x  Al               43         0.553290   0.309362   0.064232   x
            x  Al               44         0.309059   0.185656   0.182697   x
            x  Al               45         0.065215   0.315187   0.071828   x
            x  Al               46         0.690370   0.940107   0.809940   x
            x  Al               47         0.811422   0.937456   0.943875   x
            x  Al               48         0.559711   0.934640   0.681738   x
            x  Al               49         0.440311   0.062443   0.937990   x
            x  Al               50         0.313407   0.055095   0.805717   x
            x  Al               51         0.803781   0.689259   0.936379   x
            x  Al               52         0.442942   0.826657   0.939135   x
            x  Al               53         0.572508   0.689266   0.929854   x
            x  Al               54         0.313968   0.818093   0.810250   x
            x  Al               55         0.695241   0.443054   0.799505   x
            x  Al               56         0.191403   0.433901   0.804338   x
            x  Al               57         0.320247   0.573515   0.811084   x
            x  Al               58         0.058819   0.437073   0.929447   x
            x  Al               59         0.696930   0.305935   0.935687   x
            x  Al               60         0.555659   0.301947   0.801050   x
            x  Al               61         0.189018   0.195404   0.806590   x
            x  Al               62         0.061499   0.189385   0.936857   x
            x  Al               63         0.559801   0.066599   0.553319   x
            x  Al               64         0.806716   0.692723   0.685638   x
            x  Al               65         0.563783   0.692765   0.684118   x
            x  Al               66         0.315460   0.812621   0.552939   x
            x  Al               67         0.180188   0.815658   0.688204   x
            x  Al               68         0.052233   0.809673   0.560513   x
            x  Al               69         0.556809   0.306326   0.563324   x
            x  Al               70         0.553826   0.314156   0.312680   x
            x  Al               71         0.694391   0.441082   0.570821   x
            x  Al               72         0.325906   0.431744   0.672044   x
            x  Ni                1         0.940136   0.312564   0.686801   x
            x  Ni                2         0.939843   0.569725   0.685048   x
            x  Ni                3         0.939977   0.810463   0.684510   x
            x  Ni                4         0.940692   0.062090   0.685642   x
            x  Ni                5         0.818021   0.313434   0.059347   x
            x  Ni                6         0.937916   0.567162   0.936871   x
            x  Ni                7         0.938474   0.813133   0.938474   x
            x  Ni                8         0.939808   0.059316   0.936895   x
            x  Ni                9         0.940361   0.314375   0.184857   x
            x  Ni               10         0.939583   0.562677   0.186132   x
            x  Ni               11         0.941570   0.812347   0.187788   x
            x  Ni               12         0.942329   0.063979   0.186516   x
            x  Ni               13         0.939606   0.314590   0.437803   x
            x  Ni               14         0.940370   0.563357   0.435656   x
            x  Ni               15         0.940790   0.814013   0.434197   x
            x  Ni               16         0.940306   0.062494   0.435888   x
            x  Ni               17         0.061485   0.188402   0.685776   x
            x  Ni               18         0.061851   0.311811   0.561657   x
            x  Ni               19         0.189653   0.312670   0.681024   x
            x  Ni               20         0.308161   0.179666   0.682353   x
            x  Ni               21         0.312904   0.308747   0.556537   x
            x  Ni               22         0.185109   0.184351   0.560198   x
            x  Ni               23         0.435727   0.305839   0.680951   x
            x  Ni               24         0.562933   0.181692   0.682228   x
            x  Ni               25         0.434952   0.183616   0.556623   x
            x  Ni               26         0.687493   0.311195   0.684960   x
            x  Ni               27         0.815995   0.185297   0.686349   x
            x  Ni               28         0.687011   0.566989   0.683176   x
            x  Ni               29         0.691605   0.186871   0.559532   x
            x  Ni               30         0.062562   0.437707   0.687392   x
            x  Ni               31         0.062657   0.564766   0.565672   x
            x  Ni               32         0.192059   0.564181   0.688339   x
            x  Ni               33         0.314265   0.445984   0.446335   x
            x  Ni               34         0.187835   0.440250   0.564248   x
            x  Ni               35         0.437197   0.567810   0.681413   x
            x  Ni               36         0.688289   0.690411   0.807952   x
            x  Ni               37         0.819619   0.441529   0.686089   x
            x  Ni               38         0.815920   0.567172   0.560458   x
            x  Ni               39         0.562529   0.563334   0.558808   x
            x  Ni               40         0.060695   0.689045   0.688522   x
            x  Ni               41         0.312956   0.697536   0.686049   x
            x  Ni               42         0.183710   0.692945   0.560916   x
            x  Ni               43         0.438406   0.815226   0.682292   x
            x  Ni               44         0.688894   0.688746   0.558391   x
            x  Ni               45         0.563335   0.815460   0.554985   x
            x  Ni               46         0.687120   0.817046   0.682285   x
            x  Ni               47         0.816381   0.568990   0.810150   x
            x  Ni               48         0.816614   0.813422   0.559994   x
            x  Ni               49         0.055789   0.936214   0.684507   x
            x  Ni               50         0.057096   0.062904   0.558670   x
            x  Ni               51         0.181734   0.933974   0.557126   x
            x  Ni               52         0.309986   0.935186   0.679296   x
            x  Ni               53         0.180588   0.814836   0.435880   x
            x  Ni               54         0.310617   0.936738   0.433643   x
            x  Ni               55         0.437077   0.058748   0.681175   x
            x  Ni               56         0.688844   0.941326   0.556881   x
            x  Ni               57         0.439098   0.937710   0.553420   x
            x  Ni               58         0.687675   0.059685   0.682761   x
            x  Ni               59         0.815375   0.936333   0.685520   x
            x  Ni               60         0.817241   0.062271   0.561284   x
            x  Ni               61         0.565685   0.939946   0.426720   x
            x  Ni               62         0.062045   0.312965   0.809488   x
            x  Ni               63         0.186108   0.314162   0.934554   x
            x  Ni               64         0.311248   0.186502   0.933195   x
            x  Ni               65         0.315061   0.311893   0.806615   x
            x  Ni               66         0.438372   0.310681   0.932524   x
            x  Ni               67         0.564022   0.187364   0.936383   x
            x  Ni               68         0.433826   0.180931   0.808986   x
            x  Ni               69         0.818319   0.184841   0.935407   x
            x  Ni               70         0.814857   0.312357   0.808859   x
            x  Ni               71         0.691083   0.185571   0.808974   x
            x  Ni               72         0.063814   0.563177   0.809552   x
            x  Ni               73         0.189509   0.563091   0.929526   x
            x  Ni               74         0.314015   0.439769   0.931996   x
            x  Ni               75         0.441792   0.567991   0.937160   x
            x  Ni               76         0.435043   0.438398   0.805993   x
            x  Ni               77         0.560982   0.563896   0.806278   x
            x  Ni               78         0.557751   0.436639   0.681990   x
            x  Ni               79         0.685144   0.558829   0.934309   x
            x  Ni               80         0.938636   0.313587   0.934284   x
            x  Ni               81         0.813745   0.439730   0.932244   x
            x  Ni               82         0.062407   0.688908   0.935201   x
            x  Ni               83         0.060641   0.814056   0.812400   x
            x  Ni               84         0.188002   0.816267   0.933500   x
            x  Ni               85         0.316745   0.693735   0.935560   x
            x  Ni               86         0.188697   0.691539   0.811307   x
            x  Ni               87         0.439216   0.940067   0.810241   x
            x  Ni               88         0.441961   0.695791   0.812487   x
            x  Ni               89         0.687547   0.816682   0.938345   x
            x  Ni               90         0.815477   0.814721   0.812638   x
            x  Ni               91         0.563950   0.818357   0.810496   x
            x  Ni               92         0.060229   0.940907   0.936118   x
            x  Ni               93         0.061201   0.065327   0.811992   x
            x  Ni               94         0.186838   0.065126   0.932176   x
            x  Ni               95         0.312684   0.940603   0.936820   x
            x  Ni               96         0.185054   0.939103   0.809567   x
[...]
            Ni 16  -- Ni 143                 0.03        2.60030
            Ni 97  -- Ni 126                 0.03        2.60044
            Ni 14  -- Ni 31                  0.00        2.60069
            Ni 13  -- Ni 167                 0.08        2.60077
            Ni 60  -- Ni 182                -0.02        2.60085
            Ni 16  -- Ni 60                  0.04        2.60130
             Al 12 -- Ni 129                 0.14        2.60137
            Ni 154 -- Ni 156                 0.05        2.60148
            Ni 75  -- Ni 85                  0.05        2.60210
            Ni 56  -- Ni 61                  0.04        2.60216
             Al 12 -- Al 33                  0.27        2.60228
            Ni 15  -- Ni 168                 0.02        2.60235
            Ni 146 -- Ni 149                 0.01        2.60244
             Al 13 -- Ni 178                 0.18        2.60248
            Ni 113 -- Ni 171                 0.06        2.60260
             Al 3  -- Ni 3                   0.17        2.60269
             Al 67 -- Ni 52                  0.14        2.60281
             Al 54 -- Ni 86                  0.14        2.60291
            Ni 16  -- Ni 178                -0.02        2.60293
            Ni 87  -- Ni 95                 -0.07        2.60334
            Ni 119 -- Ni 123                 0.08        2.60364
            Ni 20  -- Ni 25                  0.06        2.60389
             Al 68 -- Ni 3                   0.15        2.60401
             Al 70 -- Ni 153                 0.15        2.60424
            Ni 62  -- Ni 63                 -0.07        2.60465
             Al 55 -- Ni 81                  0.20        2.60465
             Al 32 -- Ni 99                  0.18        2.60474
            Ni 29  -- Ni 154                 0.03        2.60497
            Ni 43  -- Ni 87                  0.01        2.60527
            Ni 3   -- Ni 83                  0.01        2.60561
            Ni 7   -- Ni 92                  0.06        2.60575
             Al 23 -- Ni 51                  0.18        2.60582
             Al 41 -- Ni 39                  0.14        2.60590
            Ni 8   -- Ni 141                -0.01        2.60597
            Ni 1   -- Ni 27                  0.02        2.60612
             Al 56 -- Al 58                  0.26        2.60628
             Al 23 -- Ni 22                  0.14        2.60635
             Al 3  -- Ni 15                  0.18        2.60637
             Al 11 -- Ni 82                  0.18        2.60646
            Ni 2   -- Ni 38                  0.04        2.60647
            Ni 9   -- Ni 116                 0.07        2.60649
             Al 8  -- Ni 90                  0.18        2.60720
            Ni 47  -- Ni 79                  0.03        2.60725
            Ni 124 -- Ni 174                 0.05        2.60780
             Al 41 -- Ni 153                 0.19        2.60787
            Ni 11  -- Ni 128                 0.09        2.60815
            Ni 52  -- Ni 57                  0.03        2.60862
            Ni 53  -- Ni 159                 0.03        2.60873
            Ni 5   -- Ni 116                -0.01        2.60875
             Al 30 -- Ni 162                 0.25        2.60881
            Ni 115 -- Ni 147                 0.09        2.60902
             Al 44 -- Ni 104                 0.14        2.60920
            Ni 33  -- Ni 164                 0.04        2.60934
            Ni 103 -- Ni 178                 0.14        2.60937
            Ni 87  -- Ni 97                 -0.00        2.60946
            Ni 31  -- Ni 157                -0.00        2.60996
            Ni 121 -- Ni 169                -0.02        2.61000
             Al 41 -- Ni 162                 0.16        2.61004
            Ni 166 -- Ni 177                 0.08        2.61015
            Ni 137 -- Ni 139                 0.01        2.61018
            Ni 27  -- Ni 100                 0.09        2.61033
             Al 9  -- Ni 101                 0.17        2.61042
            Ni 15  -- Ni 175                 0.08        2.61050
            Ni 73  -- Ni 123                 0.06        2.61091
             Al 1  -- Ni 16                  0.17        2.61100
             Al 36 -- Ni 130                 0.16        2.61109
             Al 47 -- Ni 7                   0.16        2.61119
             Al 15 -- Ni 14                  0.18        2.61129
            Ni 54  -- Ni 170                 0.06        2.61129
             Al 71 -- Ni 167                 0.17        2.61185
             Al 69 -- Ni 26                  0.14        2.61190
            Ni 40  -- Ni 72                  0.12        2.61221
             Al 21 -- Ni 178                 0.17        2.61230
            Ni 113 -- Ni 115                 0.11        2.61259
             Al 63 -- Ni 61                  0.18        2.61373
             Al 40 -- Ni 115                 0.15        2.61377
            Ni 4   -- Ni 59                  0.01        2.61386
             Al 61 -- Al 62                  0.25        2.61387
             Al 35 -- Ni 122                 0.15        2.61403
            Ni 110 -- Ni 119                 0.02        2.61436
            Ni 12  -- Ni 107                 0.08        2.61438
            Ni 124 -- Ni 125                 0.04        2.61439
             Al 72 -- Ni 19                  0.13        2.61448
             Al 15 -- Ni 169                 0.20        2.61465
            Ni 67  -- Ni 68                  0.04        2.61479
             Al 72 -- Ni 65                  0.15        2.61511
             Al 3  -- Al 68                  0.25        2.61517
            Ni 2   -- Ni 30                  0.05        2.61543
             Al 26 -- Ni 181                 0.15        2.61576
             Al 64 -- Ni 2                   0.15        2.61587
            Ni 182 -- Ni 183                -0.04        2.61618
             Al 40 -- Ni 151                 0.15        2.61625
             Al 21 -- Ni 169                 0.16        2.61674
             Al 53 -- Ni 126                 0.16        2.61681
            Ni 52  -- Ni 96                 -0.07        2.61704
             Al 15 -- Ni 10                  0.18        2.61744
             Al 38 -- Ni 164                 0.16        2.61765
            Ni 49  -- Ni 96                  0.05        2.61788
            Ni 63  -- Ni 65                  0.02        2.61795
            Ni 19  -- Ni 65                 -0.04        2.61826
            Ni 163 -- Ni 177                 0.00        2.61831
             Al 22 -- Ni 159                 0.16        2.61850
            Ni 110 -- Ni 111                 0.00        2.61929
             Al 37 -- Al 42                  0.23        2.61958
             Al 48 -- Ni 98                  0.15        2.61971
             Al 22 -- Al 35                  0.26        2.61973
            Ni 69  -- Ni 70                  0.03        2.62010
            Ni 54  -- Ni 179                 0.04        2.62024
            Ni 126 -- Ni 137                 0.12        2.62036
            Ni 143 -- Ni 178                 0.09        2.62044
            Ni 7   -- Ni 82                  0.06        2.62051
            Ni 24  -- Ni 68                  0.03        2.62051
             Al 36 -- Ni 125                 0.17        2.62052
             Al 27 -- Ni 34                  0.14        2.62065
             Al 43 -- Ni 108                 0.14        2.62092
            Ni 20  -- Ni 65                  0.06        2.62100
             Al 60 -- Ni 76                  0.17        2.62116
            Ni 69  -- Ni 80                  0.08        2.62123
             Al 18 -- Ni 61                  0.15        2.62137
             Al 66 -- Ni 52                  0.17        2.62202
             Al 43 -- Ni 118                 0.14        2.62204
            Ni 20  -- Ni 21                  0.08        2.62205
             Al 28 -- Ni 159                 0.15        2.62282
             Al 9  -- Ni 80                  0.19        2.62299
            Ni 72  -- Ni 82                  0.03        2.62307
             Al 69 -- Ni 29                  0.13        2.62360
             Al 2  -- Ni 2                   0.19        2.62377
            Ni 157 -- Ni 158                 0.02        2.62380
            Ni 28  -- Ni 37                  0.01        2.62385
            Ni 51  -- Ni 148                 0.06        2.62393
            Ni 69  -- Ni 108                 0.07        2.62437
             Al 25 -- Ni 61                  0.17        2.62454
             Al 14 -- Ni 167                 0.17        2.62468
            Ni 34  -- Ni 157                 0.10        2.62544
             Al 61 -- Ni 93                  0.18        2.62638
             Al 38 -- Ni 104                 0.15        2.62667
             Al 52 -- Ni 88                  0.16        2.62668
            Ni 6   -- Ni 47                  0.04        2.62714
             Al 26 -- Ni 61                  0.17        2.62814
            Ni 110 -- Ni 123                -0.02        2.62815
             Al 50 -- Ni 64                  0.12        2.62815
            Ni 24  -- Ni 25                 -0.02        2.62856
             Al 11 -- Ni 6                   0.20        2.62905
             Al 30 -- Ni 171                 0.13        2.63010
             Al 16 -- Ni 178                 0.14        2.63025
            Ni 95  -- Ni 138                -0.00        2.63028
             Al 36 -- Al 37                  0.25        2.63050
            Ni 31  -- Ni 32                  0.10        2.63063
             Al 46 -- Al 48                  0.25        2.63086
             Al 49 -- Al 50                  0.25        2.63184
             Al 62 -- Ni 62                  0.14        2.63241
             Al 20 -- Ni 20                  0.16        2.63263
            Ni 73  -- Ni 85                  0.11        2.63297
            Ni 102 -- Ni 105                 0.02        2.63342
             Al 27 -- Al 72                  0.32        2.63342
             Al 10 -- Ni 109                 0.16        2.63355
             Al 6  -- Ni 6                   0.17        2.63427
            Ni 23  -- Ni 78                  0.07        2.63616
            Ni 159 -- Ni 172                 0.05        2.63637
            Ni 40  -- Ni 83                 -0.02        2.63664
            Ni 26  -- Ni 37                 -0.02        2.63678
             Al 39 -- Ni 6                   0.15        2.63692
             Al 4  -- Ni 3                   0.15        2.63694
             Al 5  -- Ni 8                   0.18        2.63704
            Ni 91  -- Ni 97                  0.04        2.63833
            Ni 36  -- Ni 89                 -0.02        2.63864
            Ni 28  -- Ni 47                 -0.02        2.63876
            Ni 19  -- Ni 62                 -0.01        2.63954
             Al 11 -- Ni 117                 0.15        2.63958
             Al 15 -- Ni 15                  0.18        2.63972
            Ni 74  -- Ni 75                  0.06        2.63983
            Ni 32  -- Ni 42                  0.09        2.64000
            Ni 133 -- Ni 179                -0.03        2.64088
            Ni 3   -- Ni 59                  0.03        2.64128
            Ni 119 -- Ni 169                 0.07        2.64153
            Ni 89  -- Ni 130                 0.03        2.64164
             Al 19 -- Ni 181                 0.13        2.64171
            Ni 37  -- Ni 47                  0.04        2.64223
             Al 14 -- Ni 10                  0.18        2.64230
             Al 24 -- Al 68                  0.22        2.64294
            Ni 99  -- Ni 142                -0.01        2.64304
            Ni 26  -- Ni 78                 -0.10        2.64397
             Al 42 -- Ni 118                 0.16        2.64406
             Al 55 -- Ni 78                  0.15        2.64471
            Ni 110 -- Ni 112                 0.02        2.64547
             Al 63 -- Ni 58                  0.15        2.64565
            Ni 106 -- Ni 147                 0.03        2.64819
            Ni 116 -- Ni 117                 0.01        2.64877
             Al 30 -- Ni 159                 0.16        2.64903
             Al 32 -- Ni 67                  0.16        2.64956
            Ni 79  -- Ni 130                -0.02        2.64986
            Ni 102 -- Ni 112                 0.02        2.64992
             Al 48 -- Ni 58                  0.12        2.65027
            Ni 41  -- Ni 161                -0.01        2.65219
             Al 28 -- Ni 42                  0.17        2.65238
            Ni 15  -- Ni 176                 0.04        2.65517
             Al 52 -- Ni 85                  0.13        2.65600
            Ni 48  -- Ni 56                  0.08        2.65630
            Ni 80  -- Ni 81                  0.07        2.65655
             Al 3  -- Ni 40                  0.13        2.65683
            Ni 102 -- Ni 109                 0.07        2.65703
            Ni 139 -- Ni 151                -0.00        2.65746
            Ni 23  -- Ni 76                  0.01        2.65882
            Ni 36  -- Ni 79                  0.00        2.65933
             Al 20 -- Ni 52                  0.13        2.66010
            Ni 117 -- Ni 118                 0.12        2.66042
             Al 61 -- Ni 94                  0.13        2.66206
            Ni 28  -- Ni 78                  0.03        2.66246
            Ni 101 -- Ni 102                 0.06        2.66679
             Al 17 -- Ni 150                 0.14        2.66795
             Al 32 -- Al 49                  0.25        2.66892
             Al 48 -- Al 63                  0.23        2.66921
            Ni 153 -- Ni 166                 0.07        2.66980
             Al 17 -- Ni 61                  0.14        2.67142
            Ni 50  -- Ni 51                  0.03        2.67274
             Al 70 -- Ni 156                 0.12        2.67527
             Al 34 -- Al 37                  0.19        2.67664
             Al 22 -- Al 28                  0.23        2.67730
             Al 21 -- Al 33                  0.22        2.67754
             Al 5  -- Ni 80                  0.15        2.67802
            Ni 162 -- Ni 163                 0.05        2.67853
             Al 56 -- Ni 73                  0.14        2.67880
            Ni 168 -- Ni 169                 0.04        2.67897
             Al 21 -- Al 24                  0.22        2.67946
            Ni 35  -- Ni 88                  0.02        2.67953
            Ni 133 -- Ni 170                -0.02        2.67991
            Ni 33  -- Ni 145                 0.06        2.68335
            Ni 116 -- Ni 118                 0.09        2.68672
             Al 36 -- Ni 115                 0.14        2.69002
             Al 17 -- Al 63                  0.23        2.69019
             Al 34 -- Al 52                  0.20        2.69155
             Al 51 -- Ni 7                   0.13        2.69329
            Ni 33  -- Ni 160                -0.02        2.69685
             Al 3  -- Al 64                  0.22        2.69704
             Al 45 -- Ni 80                  0.13        2.69750
             Al 27 -- Al 28                  0.18        2.69768
             Al 6  -- Al 58                  0.21        2.69878
            Ni 162 -- Ni 164                 0.04        2.70550
             Al 6  -- Ni 80                  0.14        2.70583
             Al 39 -- Al 58                  0.21        2.70890
             Al 17 -- Al 19                  0.22        2.71004
            Ni 70  -- Ni 80                  0.03        2.71194
             Al 45 -- Al 58                  0.21        2.71270
             Al 9  -- Al 62                  0.23        2.71434
             Al 45 -- Al 62                  0.20        2.71488
             Al 11 -- Al 39                  0.20        2.71522
            Ni 75  -- Ni 76                  0.05        2.71530
            Ni 49  -- Ni 93                  0.04        2.71848
             Al 5  -- Al 62                  0.22        2.72121
             Al 7  -- Ni 90                  0.13        2.72121
             Al 25 -- Al 26                  0.21        2.72162
             Al 27 -- Al 30                  0.27        2.72279
             Al 22 -- Ni 171                 0.09        2.72529
             Al 20 -- Al 50                  0.21        2.72870
             Al 18 -- Al 19                  0.19        2.72915
             Al 20 -- Al 23                  0.20        2.72916
             Al 11 -- Al 51                  0.22        2.73021
             Al 50 -- Al 61                  0.18        2.73524
             Al 18 -- Al 26                  0.20        2.73740
             Al 16 -- Al 24                  0.18        2.73899
             Al 41 -- Al 71                  0.19        2.74229
             Al 69 -- Al 71                  0.22        2.74655
             Al 40 -- Al 43                  0.19        2.75127
             Al 36 -- Ni 118                 0.13        2.75200
             Al 42 -- Al 60                  0.24        2.75201
             Al 42 -- Al 43                  0.19        2.75230
             Al 29 -- Al 70                  0.19        2.75290
             Al 4  -- Al 24                  0.18        2.75325
             Al 72 -- Ni 32                  0.10        2.75692
             Al 52 -- Al 53                  0.18        2.75977
             Al 31 -- Al 38                  0.18        2.76288
             Al 34 -- Al 53                  0.17        2.76679
             Al 56 -- Al 72                  0.16        2.76783
             Al 20 -- Al 61                  0.17        2.77601
             Al 4  -- Al 68                  0.16        2.77820
             Al 37 -- Al 53                  0.15        2.77933
             Al 40 -- Al 70                  0.19        2.77943
             Al 29 -- Al 71                  0.16        2.78137
             Al 8  -- Al 47                  0.19        2.78186
             Al 66 -- Al 67                  0.18        2.78482
             Al 16 -- Al 33                  0.16        2.78578
             Al 56 -- Al 57                  0.18        2.78683
             Al 42 -- Al 55                  0.19        2.79011
             Al 10 -- Al 58                  0.18        2.79804
             Al 7  -- Al 51                  0.20        2.79813
             Al 51 -- Ni 6                   0.12        2.80021
             Al 7  -- Al 64                  0.17        2.80469
             Al 31 -- Al 44                  0.15        2.81377
             Al 10 -- Al 45                  0.15        2.83803
             Al 29 -- Al 69                  0.13        2.83889
             Al 9  -- Al 45                  0.13        2.84392
             Al 43 -- Al 59                  0.15        2.85177
             Al 10 -- Al 39                  0.15        2.85633
             Al 55 -- Al 59                  0.16        2.85765
             Al 59 -- Al 60                  0.16        2.89338
             Al 55 -- Al 60                  0.13        2.91336
             Al 42 -- Al 59                  0.13        2.93196
             Al 57 -- Al 72                  0.08        2.98204
======================================================================
 

Writing analysis data to castep.castep_bin

Writing model to castep.check
 
 A BibTeX formatted list of references used in this run has been written to 
 castep.bib
 
Initialisation time =     12.11 s
Calculation time    =  15682.74 s
Finalisation time   =      6.59 s
Total time          =  15701.44 s
Peak Memory Use     = 2128752 kB
  
Overall parallel efficiency rating: Good (72%)                                  
  
Data was distributed by:-
G-vector (48-way); efficiency rating: Good (72%)                                
